    3    3    1    1
  0.5842223E+02  0.3317854E-09  0.3317854E-09  0.1838460E-08  0.5000000E-15
  1.000000000000000E-004
  CAR 
 unknown system                          
     23      5     15
 
  0.0000000E+00  0.0000000E+00  0.0000000E+00  0.4000000E-01
    1      -36.904248   1.000000
    2      -36.762061   1.000000
    3      -36.762061   1.000000
    4      -16.449736   1.000000
    5      -14.874100   1.000000
    6       -7.998131   1.000000
    7       -4.801747   1.000000
    8       -4.801747   1.000000
    9       -3.950262   1.000000
   10       -3.669527   1.000000
   11       -3.669527   1.000000
   12       -1.378872   0.000000
   13        0.918494   0.000000
   14        0.919132   0.000000
   15        1.013279   0.000000
 
  0.2000000E+00 -0.3244487E-16  0.0000000E+00  0.2400000E+00
    1      -36.883452   1.000000
    2      -36.872031   1.000000
    3      -36.787369   1.000000
    4      -15.916195   1.000000
    5      -14.714949   1.000000
    6       -7.389666   1.000000
    7       -6.090880   1.000000
    8       -5.223376   1.000000
    9       -4.378871   1.000000
   10       -4.349811   1.000000
   11       -3.531790   1.000000
   12       -2.037030   0.014845
   13        0.643915   0.000000
   14        0.791762   0.000000
   15        1.063048   0.000000
 
  0.4000000E+00 -0.4915679E-16  0.0000000E+00  0.2400000E+00
    1      -37.044957   1.000000
    2      -36.849616   1.000000
    3      -36.828000   1.000000
    4      -14.895363   1.000000
    5      -14.419344   1.000000
    6       -7.898091   1.000000
    7       -6.579342   1.000000
    8       -6.260233   1.000000
    9       -5.180372   1.000000
   10       -3.912125   1.000000
   11       -3.706888   1.000000
   12       -2.766942   1.000000
   13        1.124276   0.000000
   14        1.345845   0.000000
   15        1.989263   0.000000
 
  0.2000000E+00  0.2000000E+00  0.0000000E+00  0.2400000E+00
    1      -36.984753   1.000000
    2      -36.856109   1.000000
    3      -36.848792   1.000000
    4      -15.117122   1.000000
    5      -14.473036   1.000000
    6       -7.244816   1.000000
    7       -6.409222   1.000000
    8       -6.293042   1.000000
    9       -5.340894   1.000000
   10       -4.612829   1.000000
   11       -3.569892   1.000000
   12       -2.493696   1.000000
   13        0.575290   0.000000
   14        1.369582   0.000000
   15        1.509183   0.000000
 
  0.4000000E+00  0.2000000E+00  0.0000000E+00  0.2400000E+00
    1      -37.038276   1.000000
    2      -36.901689   1.000000
    3      -36.839151   1.000000
    4      -14.537336   1.000000
    5      -14.293387   1.000000
    6       -7.619206   1.000000
    7       -7.165932   1.000000
    8       -6.110673   1.000000
    9       -5.244453   1.000000
   10       -5.204662   1.000000
   11       -4.030368   1.000000
   12       -2.061321   0.068488
   13        0.643815   0.000000
   14        2.067950   0.000000
   15        2.104628   0.000000
