<?xml version="1.0" encoding="ISO-8859-1"?>
<modeling>
 <generator>
  <i name="program" type="string">vasp </i>
  <i name="version" type="string">6.2.1  </i>
  <i name="subversion" type="string">16May21 (build Jul 15 2021 16:58:06) complex                          parallel </i>
  <i name="platform" type="string">LinuxIFC </i>
  <i name="date" type="string">2025 10 01 </i>
  <i name="time" type="string">12:54:12 </i>
 </generator>
 <incar>
  <i type="int" name="ISTART">     0</i>
  <i type="string" name="PREC">Normal   (Precision level: Normal or Accurate, set Accurate when perform structure lattice relaxation calculation)</i>
  <i type="string" name="ALGO">Normal</i>
  <i type="logical" name="ADDGRID"> T  </i>
  <i type="int" name="ISPIN">     1</i>
  <i type="int" name="NELM">  2000</i>
  <i type="int" name="NELMIN">     6</i>
  <i name="EDIFF">      0.00000001</i>
  <i name="SYMPREC">      0.00000100</i>
  <i name="ENCUT">    500.00000000</i>
  <i type="int" name="NEDOS">  2001</i>
  <i type="logical" name="LREAL"> F  </i>
  <i type="int" name="ISMEAR">     0</i>
  <i name="SIGMA">      0.05000000</i>
  <i type="logical" name="LWAVE"> T  </i>
  <i type="logical" name="LCHARG"> T  </i>
  <i type="logical" name="LVTOT"> T  </i>
  <i type="int" name="LORBIT">    10</i>
  <i type="int" name="IVDW">    12</i>
 </incar>
 <primitive_cell>
  <structure name="primitive_cell" >
   <crystal>
    <varray name="basis" >
     <v>       3.31785391       0.00000000       0.00000000 </v>
     <v>      -1.65892696       2.87334578       0.00000000 </v>
     <v>       0.00000000       0.00000000      18.38460316 </v>
    </varray>
    <i name="volume">    175.26670071 </i>
    <varray name="rec_basis" >
     <v>       0.30139965       0.17401317       0.00000000 </v>
     <v>      -0.00000000       0.34802634       0.00000000 </v>
     <v>       0.00000000       0.00000000       0.05439334 </v>
    </varray>
   </crystal>
   <varray name="positions" >
    <v>       0.00000000       0.00000000       0.50000000 </v>
    <v>       0.66666667       0.33333333       0.58490063 </v>
    <v>       0.66666667       0.33333333       0.41509937 </v>
   </varray>
  </structure>
  <varray name="primitive_index" >
   <v type="int" >        1 </v>
   <v type="int" >        2 </v>
   <v type="int" >        3 </v>
  </varray>
 </primitive_cell>
 <kpoints>
  <generation param="Gamma">
   <v type="int" name="divisions">       5        5        1 </v>
   <v name="usershift">      0.00000000       0.00000000       0.00000000 </v>
   <v name="genvec1">      0.20000000       0.00000000       0.00000000 </v>
   <v name="genvec2">      0.00000000       0.20000000       0.00000000 </v>
   <v name="genvec3">      0.00000000       0.00000000       1.00000000 </v>
   <v name="shift">      0.00000000       0.00000000       0.00000000 </v>
  </generation>
  <varray name="kpointlist" >
   <v>       0.00000000       0.00000000       0.00000000 </v>
   <v>       0.20000000      -0.00000000       0.00000000 </v>
   <v>       0.40000000      -0.00000000       0.00000000 </v>
   <v>       0.20000000       0.20000000       0.00000000 </v>
   <v>       0.40000000       0.20000000       0.00000000 </v>
  </varray>
  <varray name="weights" >
   <v>       0.04000000 </v>
   <v>       0.24000000 </v>
   <v>       0.24000000 </v>
   <v>       0.24000000 </v>
   <v>       0.24000000 </v>
  </varray>
 </kpoints>
 <parameters>
  <separator name="general" >
   <i type="string" name="SYSTEM">unknown system</i>
   <i type="logical" name="LCOMPAT"> F  </i>
  </separator>
  <separator name="electronic" >
   <i type="string" name="PREC">normal</i>
   <i name="ENMAX">    500.00000000</i>
   <i name="ENAUG">    377.42100000</i>
   <i name="EDIFF">      0.00000001</i>
   <i type="int" name="IALGO">    38</i>
   <i type="int" name="IWAVPR">    10</i>
   <i type="int" name="NBANDS">    15</i>
   <i type="int" name="NBANDSLOW">    -1</i>
   <i type="int" name="NBANDSHIGH">    -1</i>
   <i name="NELECT">     23.00000000</i>
   <i type="int" name="TURBO">     0</i>
   <i type="int" name="IRESTART">     0</i>
   <i type="int" name="NREBOOT">     0</i>
   <i type="int" name="NMIN">     0</i>
   <i name="EREF">      0.00000000</i>
   <separator name="electronic smearing" >
    <i type="int" name="ISMEAR">     0</i>
    <i name="SIGMA">      0.05000000</i>
    <i name="KSPACING">      0.50000000</i>
    <i type="logical" name="KGAMMA"> T  </i>
    <i type="logical" name="KBLOWUP"> T  </i>
   </separator>
   <separator name="electronic projectors" >
    <i type="logical" name="LREAL"> F  </i>
    <v name="ROPT">      0.00000000      0.00000000</v>
    <i type="int" name="LMAXPAW">  -100</i>
    <i type="int" name="LMAXMIX">     2</i>
    <i type="logical" name="NLSPLINE"> F  </i>
   </separator>
   <separator name="electronic startup" >
    <i type="int" name="ISTART">     0</i>
    <i type="int" name="ICHARG">     2</i>
    <i type="int" name="INIWAV">     1</i>
   </separator>
   <separator name="electronic spin" >
    <i type="int" name="ISPIN">     1</i>
    <i type="logical" name="LNONCOLLINEAR"> F  </i>
    <v name="MAGMOM">      1.00000000      1.00000000      1.00000000</v>
    <i name="NUPDOWN">     -1.00000000</i>
    <i type="logical" name="LSORBIT"> F  </i>
    <v name="SAXIS">      0.00000000      0.00000000      1.00000000</v>
    <i type="logical" name="LSPIRAL"> F  </i>
    <v name="QSPIRAL">      0.00000000      0.00000000      0.00000000</v>
    <i type="logical" name="LZEROZ"> F  </i>
   </separator>
   <separator name="electronic exchange-correlation" >
    <i type="logical" name="LASPH"> F  </i>
    <i type="logical" name="LMETAGGA"> F  </i>
   </separator>
   <separator name="electronic convergence" >
    <i type="int" name="NELM">  2000</i>
    <i type="int" name="NELMDL">    -5</i>
    <i type="int" name="NELMIN">     6</i>
    <i name="ENINI">    500.00000000</i>
    <separator name="electronic convergence detail" >
     <i type="logical" name="LDIAG"> T  </i>
     <i type="logical" name="LSUBROT"> F  </i>
     <i name="WEIMIN">      0.00000000</i>
     <i name="EBREAK">      0.00000000</i>
     <i name="DEPER">      0.30000000</i>
     <i type="int" name="NRMM">     4</i>
     <i name="TIME">      0.40000000</i>
    </separator>
   </separator>
   <separator name="electronic mixer" >
    <i name="AMIX">      0.40000000</i>
    <i name="BMIX">      1.00000000</i>
    <i name="AMIN">      0.10000000</i>
    <i name="AMIX_MAG">      1.60000000</i>
    <i name="BMIX_MAG">      1.00000000</i>
    <separator name="electronic mixer details" >
     <i type="int" name="IMIX">     4</i>
     <i type="logical" name="MIXFIRST"> F  </i>
     <i type="int" name="MAXMIX">   -45</i>
     <i name="WC">    100.00000000</i>
     <i type="int" name="INIMIX">     1</i>
     <i type="int" name="MIXPRE">     1</i>
     <i type="int" name="MREMOVE">     5</i>
    </separator>
   </separator>
   <separator name="electronic dipolcorrection" >
    <i type="logical" name="LDIPOL"> F  </i>
    <i type="logical" name="LMONO"> F  </i>
    <i type="int" name="IDIPOL">     0</i>
    <i name="EPSILON">      1.00000000</i>
    <v name="DIPOL">   -100.00000000   -100.00000000   -100.00000000</v>
    <i name="EFIELD">      0.00000000</i>
   </separator>
  </separator>
  <separator name="grids" >
   <i type="int" name="NGX">    18</i>
   <i type="int" name="NGY">    18</i>
   <i type="int" name="NGZ">   108</i>
   <i type="int" name="NGXF">    36</i>
   <i type="int" name="NGYF">    36</i>
   <i type="int" name="NGZF">   216</i>
   <i type="logical" name="ADDGRID"> T  </i>
  </separator>
  <separator name="ionic" >
   <i type="int" name="NSW">     0</i>
   <i type="int" name="IBRION">    -1</i>
   <i type="int" name="MDALGO">     0</i>
   <i type="int" name="ISIF">     2</i>
   <i name="PSTRESS">      0.00000000</i>
   <i name="EDIFFG">      0.00000010</i>
   <i type="int" name="NFREE">     0</i>
   <i name="POTIM">      0.50000000</i>
   <i name="SMASS">     -3.00000000</i>
   <i name="SCALEE">      1.00000000</i>
  </separator>
  <separator name="ionic md" >
   <i name="TEBEG">      0.00010000</i>
   <i name="TEEND">      0.00010000</i>
   <i type="int" name="NBLOCK">     1</i>
   <i type="int" name="KBLOCK">     1</i>
   <i type="int" name="NPACO">   256</i>
   <i name="APACO">     16.00000000</i>
  </separator>
  <separator name="symmetry" >
   <i type="int" name="ISYM">     2</i>
   <i name="SYMPREC">      0.00000100</i>
  </separator>
  <separator name="dos" >
   <i type="int" name="LORBIT">    10</i>
   <v name="RWIGS">     -1.00000000     -1.00000000</v>
   <i type="int" name="NEDOS">  2001</i>
   <i name="EMIN">     10.00000000</i>
   <i name="EMAX">    -10.00000000</i>
   <i name="EFERMI">      0.00000000</i>
  </separator>
  <separator name="writing" >
   <i type="int" name="NWRITE">     2</i>
   <i type="logical" name="LWAVE"> T  </i>
   <i type="logical" name="LDOWNSAMPLE"> F  </i>
   <i type="logical" name="LCHARG"> T  </i>
   <i type="logical" name="LPARD"> F  </i>
   <i type="logical" name="LVTOT"> T  </i>
   <i type="logical" name="LVHAR"> F  </i>
   <i type="logical" name="LELF"> F  </i>
   <i type="logical" name="LOPTICS"> F  </i>
   <v name="STM">      0.00000000      0.00000000      0.00000000      0.00000000      0.00000000      0.00000000      0.00000000</v>
  </separator>
  <separator name="performance" >
   <i type="int" name="NPAR">     1</i>
   <i type="int" name="NSIM">     4</i>
   <i type="int" name="NBLK">    -1</i>
   <i type="logical" name="LPLANE"> T  </i>
   <i type="logical" name="LSCALAPACK"> T  </i>
   <i type="logical" name="LSCAAWARE"> F  </i>
   <i type="logical" name="LSCALU"> F  </i>
   <i type="logical" name="LASYNC"> F  </i>
   <i type="logical" name="LORBITALREAL"> F  </i>
  </separator>
  <separator name="miscellaneous" >
   <i type="int" name="IDIOT">     3</i>
   <i type="int" name="PHON_NSTRUCT">    -1</i>
   <i type="logical" name="LMUSIC"> F  </i>
   <v name="POMASS">    180.94800000     32.06600000</v>
   <v name="DARWINR">      0.00000000      0.00000000</v>
   <v name="DARWINV">      1.00000000      1.00000000</v>
   <i type="logical" name="LCORR"> T  </i>
  </separator>
  <i type="logical" name="GGA_COMPAT"> T  </i>
  <i type="logical" name="LBERRY"> F  </i>
  <i type="int" name="ICORELEVEL">     0</i>
  <i type="logical" name="LDAU"> F  </i>
  <i type="int" name="I_CONSTRAINED_M">     0</i>
  <separator name="electronic exchange-correlation" >
   <i type="string" name="GGA">--</i>
   <i type="int" name="VOSKOWN">     0</i>
   <i type="logical" name="LHFCALC"> F  </i>
   <i type="string" name="PRECFOCK"></i>
   <i type="logical" name="LSYMGRAD"> F  </i>
   <i type="logical" name="LHFONE"> F  </i>
   <i type="logical" name="LRHFCALC"> F  </i>
   <i type="logical" name="LTHOMAS"> F  </i>
   <i type="logical" name="LMODELHF"> F  </i>
   <i type="logical" name="LFOCKACE"> F  </i>
   <i name="ENCUT4O">     -1.00000000</i>
   <i type="int" name="EXXOEP">     0</i>
   <i type="int" name="FOURORBIT">     0</i>
   <i name="AEXX">      0.00000000</i>
   <i name="HFALPHA">      0.00000000</i>
   <i name="MCALPHA">      0.00000000</i>
   <i name="ALDAX">      1.00000000</i>
   <i name="AGGAX">      1.00000000</i>
   <i name="ALDAC">      1.00000000</i>
   <i name="AGGAC">      1.00000000</i>
   <i type="int" name="NKREDX">     1</i>
   <i type="int" name="NKREDY">     1</i>
   <i type="int" name="NKREDZ">     1</i>
   <i type="logical" name="SHIFTRED"> F  </i>
   <i type="logical" name="ODDONLY"> F  </i>
   <i type="logical" name="EVENONLY"> F  </i>
   <i type="int" name="LMAXFOCK">     0</i>
   <i type="int" name="NMAXFOCKAE">     0</i>
   <i type="logical" name="LFOCKAEDFT"> F  </i>
   <i name="HFSCREEN">      0.00000000</i>
   <i name="HFSCREENC">      0.00000000</i>
   <i type="int" name="NBANDSGWLOW">     0</i>
  </separator>
  <separator name="vdW DFT" >
   <i type="logical" name="LUSE_VDW"> F  </i>
   <i name="Zab_VDW">     -0.84910000</i>
   <i name="PARAM1">      0.12340000</i>
   <i name="PARAM2">      1.00000000</i>
   <i name="PARAM3">      0.00000000</i>
  </separator>
  <separator name="model GW" >
   <i type="int" name="MODEL_GW">     0</i>
   <i name="MODEL_EPS0">     35.05334014</i>
   <i name="MODEL_ALPHA">      1.00000000</i>
  </separator>
  <separator name="linear response parameters" >
   <i type="logical" name="LEPSILON"> F  </i>
   <i type="logical" name="LRPA"> F  </i>
   <i type="logical" name="LNABLA"> F  </i>
   <i type="logical" name="LVEL"> F  </i>
   <i type="int" name="KINTER">     0</i>
   <i name="CSHIFT">      0.10000000</i>
   <i name="OMEGAMAX">     -1.00000000</i>
   <i name="DEG_THRESHOLD">      0.00200000</i>
   <i name="RTIME">     -0.10000000</i>
   <i name="WPLASMAI">      0.00000000</i>
   <v name="DFIELD">      0.00000000      0.00000000      0.00000000</v>
   <v name="WPLASMA">      0.00000000      0.00000000      0.00000000      0.00000000      0.00000000      0.00000000      0.00000000      0.00000000      0.00000000</v>
  </separator>
  <separator name="orbital magnetization" >
   <i type="logical" name="NUCIND"> F  </i>
   <v name="MAGPOS">      0.00000000      0.00000000      0.00000000</v>
   <i type="logical" name="LNICSALL"> T  </i>
   <i type="logical" name="ORBITALMAG"> F  </i>
   <i type="logical" name="LMAGBLOCH"> F  </i>
   <i type="logical" name="LCHIMAG"> F  </i>
   <i type="logical" name="LGAUGE"> T  </i>
   <i type="int" name="MAGATOM">     0</i>
   <v name="MAGDIPOL">      0.00000000      0.00000000      0.00000000</v>
   <v name="AVECCONST">      0.00000000      0.00000000      0.00000000</v>
  </separator>
  <separator name="response functions" >
   <i type="logical" name="LFINITE_TEMPERATURE"> F  </i>
   <i type="logical" name="LADDER"> F  </i>
   <i type="logical" name="LRPAFORCE"> F  </i>
   <i type="logical" name="LFXC"> F  </i>
   <i type="logical" name="LHARTREE"> T  </i>
   <i type="int" name="IBSE">     0</i>
   <v type="int" name="KPOINT">    -1     0     0     0</v>
   <i type="logical" name="LTCTC"> F  </i>
   <i type="logical" name="LTCTE"> F  </i>
   <i type="logical" name="LTETE"> F  </i>
   <i type="logical" name="LTRIPLET"> F  </i>
   <i type="logical" name="LFXCEPS"> F  </i>
   <i type="logical" name="LFXHEG"> F  </i>
   <i type="int" name="NATURALO">     2</i>
   <i type="logical" name="LHOLEGF"> F  </i>
   <i type="logical" name="L2ORDER"> F  </i>
   <i type="logical" name="LDMP1"> F  </i>
   <i type="logical" name="LMP2LT"> F  </i>
   <i type="logical" name="LSMP2LT"> F  </i>
   <i type="logical" name="LGWLF"> F  </i>
   <i name="ENCUTGW">     -2.00000000</i>
   <i name="ENCUTGWSOFT">     -2.00000000</i>
   <i name="ENCUTLF">     -1.00000000</i>
   <i type="logical" name="LESF_SPLINES"> F  </i>
   <i type="int" name="LMAXMP2">    -1</i>
   <i name="SCISSOR">      0.00000000</i>
   <i type="int" name="NOMEGA">     0</i>
   <i type="int" name="NOMEGAR">     0</i>
   <i type="int" name="NBANDSGW">    -1</i>
   <i type="int" name="NBANDSO">    -1</i>
   <i type="int" name="NBANDSV">    -1</i>
   <i type="int" name="NELM">  2000</i>
   <i type="int" name="NELMHF">     1</i>
   <i type="int" name="DIM">     3</i>
   <i type="int" name="IESPILON">     4</i>
   <i type="int" name="ANTIRES">     0</i>
   <i name="OMEGAMAX">    -30.00000000</i>
   <i name="OMEGAMIN">    -30.00000000</i>
   <i name="OMEGATL">   -200.00000000</i>
   <i type="int" name="OMEGAGRID">     0</i>
   <i name="CSHIFT">     -0.10000000</i>
   <i type="logical" name="LSELFENERGY"> F  </i>
   <i type="logical" name="LSPECTRAL"> F  </i>
   <i type="logical" name="LSPECTRALGW"> F  </i>
   <i type="logical" name="LSINGLES"> F  </i>
   <i type="logical" name="LFERMIGW"> F  </i>
   <i type="logical" name="ODDONLYGW"> F  </i>
   <i type="logical" name="EVENONLYGW"> F  </i>
   <i type="int" name="NKREDLFX">     1</i>
   <i type="int" name="NKREDLFY">     1</i>
   <i type="int" name="NKREDLFZ">     1</i>
   <i type="int" name="MAXMEM">  2800</i>
   <i type="int" name="TELESCOPE">     0</i>
   <i type="int" name="NTAUPAR">    -1</i>
   <i type="int" name="NOMEGAPAR">    -1</i>
   <i name="DAMP_NEWTON">      0.80000001</i>
   <i name="LAMBDA">      1.00000000</i>
  </separator>
  <separator name="External order field" >
   <i name="OFIELD_KAPPA">      0.00000000</i>
   <v name="OFIELD_K">      0.00000000      0.00000000      0.00000000</v>
   <i name="OFIELD_Q6_NEAR">      0.00000000</i>
   <i name="OFIELD_Q6_FAR">      0.00000000</i>
   <i name="OFIELD_A">      0.00000000</i>
  </separator>
 </parameters>
 <atominfo>
  <atoms>       3 </atoms>
  <types>       2 </types>
  <array name="atoms" >
   <dimension dim="1">ion</dimension>
   <field type="string">element</field>
   <field type="int">atomtype</field>
   <set>
    <rc><c>Ta</c><c>   1</c></rc>
    <rc><c>S </c><c>   2</c></rc>
    <rc><c>S </c><c>   2</c></rc>
   </set>
  </array>
  <array name="atomtypes" >
   <dimension dim="1">type</dimension>
   <field type="int">atomspertype</field>
   <field type="string">element</field>
   <field>mass</field>
   <field>valence</field>
   <field type="string">pseudopotential</field>
   <set>
    <rc><c>   1</c><c>Ta</c><c>    180.94800000</c><c>     11.00000000</c><c>  PAW_PBE Ta_pv 07Sep2000               </c></rc>
    <rc><c>   2</c><c>S </c><c>     32.06600000</c><c>      6.00000000</c><c>  PAW_PBE S 06Sep2000                   </c></rc>
   </set>
  </array>
 </atominfo>
 <structure name="initialpos" >
  <crystal>
   <varray name="basis" >
    <v>       3.31785391       0.00000000       0.00000000 </v>
    <v>      -1.65892696       2.87334578       0.00000000 </v>
    <v>       0.00000000       0.00000000      18.38460316 </v>
   </varray>
   <i name="volume">    175.26670071 </i>
   <varray name="rec_basis" >
    <v>       0.30139965       0.17401317       0.00000000 </v>
    <v>      -0.00000000       0.34802634       0.00000000 </v>
    <v>       0.00000000       0.00000000       0.05439334 </v>
   </varray>
  </crystal>
  <varray name="positions" >
   <v>       0.00000000       0.00000000       0.50000000 </v>
   <v>       0.66666667       0.33333333       0.58490063 </v>
   <v>       0.66666667       0.33333333       0.41509937 </v>
  </varray>
 </structure>
 <calculation>
  <scstep>
   <time name="dav">    1.35    1.35</time>
   <time name="total">    1.90    1.90</time>
   <energy>
    <i name="alphaZ">     33.95236988 </i>
    <i name="ewald">   3200.90625894 </i>
    <i name="hartreedc">  -4575.97975958 </i>
    <i name="XCdc">     48.03838372 </i>
    <i name="pawpsdc">   1255.91668348 </i>
    <i name="pawaedc">  -1233.02827551 </i>
    <i name="eentropy">     -0.00260182 </i>
    <i name="bandstr">   -192.98319079 </i>
    <i name="atom">   1600.83853210 </i>
    <i name="e_fr_energy">    137.65840041 </i>
    <i name="e_wo_entrp">    137.66100223 </i>
    <i name="e_0_energy">    137.65970132 </i>
   </energy>
  </scstep>
  <scstep>
   <time name="dav">    1.36    1.36</time>
   <time name="total">    1.36    1.36</time>
   <energy>
    <i name="e_fr_energy">    -10.78586875 </i>
    <i name="e_wo_entrp">    -10.78326681 </i>
    <i name="e_0_energy">    -10.78456778 </i>
   </energy>
  </scstep>
  <scstep>
   <time name="dav">    1.44    1.45</time>
   <time name="total">    1.44    1.45</time>
   <energy>
    <i name="e_fr_energy">    -24.57389680 </i>
    <i name="e_wo_entrp">    -24.57129499 </i>
    <i name="e_0_energy">    -24.57259589 </i>
   </energy>
  </scstep>
  <scstep>
   <time name="dav">    1.54    1.54</time>
   <time name="total">    1.54    1.54</time>
   <energy>
    <i name="e_fr_energy">    -24.80290635 </i>
    <i name="e_wo_entrp">    -24.80030303 </i>
    <i name="e_0_energy">    -24.80160469 </i>
   </energy>
  </scstep>
  <scstep>
   <time name="dav">    1.31    1.31</time>
   <time name="total">    1.62    1.62</time>
   <energy>
    <i name="e_fr_energy">    -24.80977177 </i>
    <i name="e_wo_entrp">    -24.80716841 </i>
    <i name="e_0_energy">    -24.80847009 </i>
   </energy>
  </scstep>
  <scstep>
   <time name="dav">    1.27    1.27</time>
   <time name="total">    2.07    2.07</time>
   <energy>
    <i name="e_fr_energy">    -23.37414914 </i>
    <i name="e_wo_entrp">    -23.37154732 </i>
    <i name="e_0_energy">    -23.37284823 </i>
   </energy>
  </scstep>
  <scstep>
   <time name="dav">    1.31    1.31</time>
   <time name="total">    2.14    2.14</time>
   <energy>
    <i name="e_fr_energy">    -23.25736472 </i>
    <i name="e_wo_entrp">    -23.25434685 </i>
    <i name="e_0_energy">    -23.25585579 </i>
   </energy>
  </scstep>
  <scstep>
   <time name="dav">    1.26    1.26</time>
   <time name="total">    2.09    2.09</time>
   <energy>
    <i name="e_fr_energy">    -23.24023450 </i>
    <i name="e_wo_entrp">    -23.23724097 </i>
    <i name="e_0_energy">    -23.23873773 </i>
   </energy>
  </scstep>
  <scstep>
   <time name="dav">    1.47    1.47</time>
   <time name="total">    2.31    2.31</time>
   <energy>
    <i name="e_fr_energy">    -23.23772540 </i>
    <i name="e_wo_entrp">    -23.23481796 </i>
    <i name="e_0_energy">    -23.23627168 </i>
   </energy>
  </scstep>
  <scstep>
   <time name="dav">    1.31    1.31</time>
   <time name="total">    2.13    2.13</time>
   <energy>
    <i name="e_fr_energy">    -23.23636617 </i>
    <i name="e_wo_entrp">    -23.23351311 </i>
    <i name="e_0_energy">    -23.23493964 </i>
   </energy>
  </scstep>
  <scstep>
   <time name="dav">    1.47    1.47</time>
   <time name="total">    2.30    2.30</time>
   <energy>
    <i name="e_fr_energy">    -23.23611931 </i>
    <i name="e_wo_entrp">    -23.23325166 </i>
    <i name="e_0_energy">    -23.23468549 </i>
   </energy>
  </scstep>
  <scstep>
   <time name="dav">    1.35    1.35</time>
   <time name="total">    2.21    2.21</time>
   <energy>
    <i name="e_fr_energy">    -23.23602403 </i>
    <i name="e_wo_entrp">    -23.23315106 </i>
    <i name="e_0_energy">    -23.23458755 </i>
   </energy>
  </scstep>
  <scstep>
   <time name="dav">    1.40    1.40</time>
   <time name="total">    2.22    2.22</time>
   <energy>
    <i name="e_fr_energy">    -23.23602791 </i>
    <i name="e_wo_entrp">    -23.23315271 </i>
    <i name="e_0_energy">    -23.23459031 </i>
   </energy>
  </scstep>
  <scstep>
   <time name="dav">    1.33    1.33</time>
   <time name="total">    2.23    2.23</time>
   <energy>
    <i name="e_fr_energy">    -23.23619489 </i>
    <i name="e_wo_entrp">    -23.23331448 </i>
    <i name="e_0_energy">    -23.23475469 </i>
   </energy>
  </scstep>
  <scstep>
   <time name="dav">    1.36    1.36</time>
   <time name="total">    2.21    2.21</time>
   <energy>
    <i name="e_fr_energy">    -23.23622889 </i>
    <i name="e_wo_entrp">    -23.23335125 </i>
    <i name="e_0_energy">    -23.23479007 </i>
   </energy>
  </scstep>
  <scstep>
   <time name="dav">    1.39    1.39</time>
   <time name="total">    2.29    2.29</time>
   <energy>
    <i name="e_fr_energy">    -23.23625815 </i>
    <i name="e_wo_entrp">    -23.23338079 </i>
    <i name="e_0_energy">    -23.23481947 </i>
   </energy>
  </scstep>
  <scstep>
   <time name="dav">    1.37    1.37</time>
   <time name="total">    2.25    2.25</time>
   <energy>
    <i name="e_fr_energy">    -23.23628507 </i>
    <i name="e_wo_entrp">    -23.23340759 </i>
    <i name="e_0_energy">    -23.23484633 </i>
   </energy>
  </scstep>
  <scstep>
   <time name="dav">    1.36    1.36</time>
   <time name="total">    2.23    2.23</time>
   <energy>
    <i name="e_fr_energy">    -23.23631594 </i>
    <i name="e_wo_entrp">    -23.23343861 </i>
    <i name="e_0_energy">    -23.23487727 </i>
   </energy>
  </scstep>
  <scstep>
   <time name="dav">    1.41    1.41</time>
   <time name="total">    2.29    2.29</time>
   <energy>
    <i name="e_fr_energy">    -23.23633094 </i>
    <i name="e_wo_entrp">    -23.23345331 </i>
    <i name="e_0_energy">    -23.23489212 </i>
   </energy>
  </scstep>
  <scstep>
   <time name="dav">    1.39    1.39</time>
   <time name="total">    2.26    2.26</time>
   <energy>
    <i name="e_fr_energy">    -23.23633465 </i>
    <i name="e_wo_entrp">    -23.23345709 </i>
    <i name="e_0_energy">    -23.23489587 </i>
   </energy>
  </scstep>
  <scstep>
   <time name="dav">    1.32    1.32</time>
   <time name="total">    2.21    2.21</time>
   <energy>
    <i name="e_fr_energy">    -23.23633648 </i>
    <i name="e_wo_entrp">    -23.23345890 </i>
    <i name="e_0_energy">    -23.23489769 </i>
   </energy>
  </scstep>
  <scstep>
   <time name="dav">    1.21    1.21</time>
   <time name="total">    2.10    2.10</time>
   <energy>
    <i name="e_fr_energy">    -23.23633662 </i>
    <i name="e_wo_entrp">    -23.23345905 </i>
    <i name="e_0_energy">    -23.23489784 </i>
   </energy>
  </scstep>
  <scstep>
   <time name="dav">    1.14    1.14</time>
   <time name="total">    2.02    2.02</time>
   <energy>
    <i name="e_fr_energy">    -23.23633673 </i>
    <i name="e_wo_entrp">    -23.23345917 </i>
    <i name="e_0_energy">    -23.23489795 </i>
   </energy>
  </scstep>
  <scstep>
   <time name="dav">    1.04    1.04</time>
   <time name="total">    1.58    1.59</time>
   <energy>
    <i name="alphaZ">     33.95236988 </i>
    <i name="ewald">   3200.90625894 </i>
    <i name="hartreedc">  -4577.35996158 </i>
    <i name="XCdc">     48.13644792 </i>
    <i name="pawpsdc">   2984.59434820 </i>
    <i name="pawaedc">  -2964.70740411 </i>
    <i name="eentropy">     -0.00287757 </i>
    <i name="bandstr">   -349.59405051 </i>
    <i name="atom">   1600.83853210 </i>
    <i name="e_fr_energy">    -23.23633674 </i>
    <i name="e_wo_entrp">    -23.23345917 </i>
    <i name="e_0_energy">    -23.23489795 </i>
   </energy>
  </scstep>
  <structure>
   <crystal>
    <varray name="basis" >
     <v>       3.31785391       0.00000000       0.00000000 </v>
     <v>      -1.65892696       2.87334578       0.00000000 </v>
     <v>       0.00000000       0.00000000      18.38460316 </v>
    </varray>
    <i name="volume">    175.26670071 </i>
    <varray name="rec_basis" >
     <v>       0.30139965       0.17401317       0.00000000 </v>
     <v>      -0.00000000       0.34802634       0.00000000 </v>
     <v>       0.00000000       0.00000000       0.05439334 </v>
    </varray>
   </crystal>
   <varray name="positions" >
    <v>       0.00000000       0.00000000       0.50000000 </v>
    <v>       0.66666667       0.33333333       0.58490063 </v>
    <v>       0.66666667       0.33333333       0.41509937 </v>
   </varray>
  </structure>
  <varray name="forces" >
   <v>       0.00000000       0.00000000      -0.00000000 </v>
   <v>      -0.00000000       0.00000000      -0.00901610 </v>
   <v>      -0.00000000      -0.00000000       0.00901610 </v>
  </varray>
  <varray name="stress" >
   <v>      -0.50185352       0.00000000      -0.00000000 </v>
   <v>       0.00000000      -0.50185352      -0.00000000 </v>
   <v>      -0.00000000      -0.00000000      -0.57605809 </v>
  </varray>
  <energy>
   <i name="e_fr_energy">    -24.10105196 </i>
   <i name="e_wo_entrp">    -24.09817440 </i>
   <i name="e_0_energy">    -24.09961318 </i>
  </energy>
  <time name="totalsc">   58.10   58.11</time>
  <eigenvalues>
   <array>
    <dimension dim="1">band</dimension>
    <dimension dim="2">kpoint</dimension>
    <dimension dim="3">spin</dimension>
    <field>eigene</field>
    <field>occ</field>
    <set>
     <set comment="spin 1">
      <set comment="kpoint 1">
       <r>  -36.9042    1.0000 </r>
       <r>  -36.7621    1.0000 </r>
       <r>  -36.7621    1.0000 </r>
       <r>  -16.4497    1.0000 </r>
       <r>  -14.8741    1.0000 </r>
       <r>   -7.9981    1.0000 </r>
       <r>   -4.8017    1.0000 </r>
       <r>   -4.8017    1.0000 </r>
       <r>   -3.9503    1.0000 </r>
       <r>   -3.6695    1.0000 </r>
       <r>   -3.6695    1.0000 </r>
       <r>   -1.3789    0.0000 </r>
       <r>    0.9185    0.0000 </r>
       <r>    0.9191    0.0000 </r>
       <r>    1.0133    0.0000 </r>
      </set>
      <set comment="kpoint 2">
       <r>  -36.8835    1.0000 </r>
       <r>  -36.8720    1.0000 </r>
       <r>  -36.7874    1.0000 </r>
       <r>  -15.9162    1.0000 </r>
       <r>  -14.7149    1.0000 </r>
       <r>   -7.3897    1.0000 </r>
       <r>   -6.0909    1.0000 </r>
       <r>   -5.2234    1.0000 </r>
       <r>   -4.3789    1.0000 </r>
       <r>   -4.3498    1.0000 </r>
       <r>   -3.5318    1.0000 </r>
       <r>   -2.0370    0.0148 </r>
       <r>    0.6439    0.0000 </r>
       <r>    0.7918    0.0000 </r>
       <r>    1.0630    0.0000 </r>
      </set>
      <set comment="kpoint 3">
       <r>  -37.0450    1.0000 </r>
       <r>  -36.8496    1.0000 </r>
       <r>  -36.8280    1.0000 </r>
       <r>  -14.8954    1.0000 </r>
       <r>  -14.4193    1.0000 </r>
       <r>   -7.8981    1.0000 </r>
       <r>   -6.5793    1.0000 </r>
       <r>   -6.2602    1.0000 </r>
       <r>   -5.1804    1.0000 </r>
       <r>   -3.9121    1.0000 </r>
       <r>   -3.7069    1.0000 </r>
       <r>   -2.7669    1.0000 </r>
       <r>    1.1243    0.0000 </r>
       <r>    1.3458    0.0000 </r>
       <r>    1.9893    0.0000 </r>
      </set>
      <set comment="kpoint 4">
       <r>  -36.9848    1.0000 </r>
       <r>  -36.8561    1.0000 </r>
       <r>  -36.8488    1.0000 </r>
       <r>  -15.1171    1.0000 </r>
       <r>  -14.4730    1.0000 </r>
       <r>   -7.2448    1.0000 </r>
       <r>   -6.4092    1.0000 </r>
       <r>   -6.2930    1.0000 </r>
       <r>   -5.3409    1.0000 </r>
       <r>   -4.6128    1.0000 </r>
       <r>   -3.5699    1.0000 </r>
       <r>   -2.4937    1.0000 </r>
       <r>    0.5753    0.0000 </r>
       <r>    1.3696    0.0000 </r>
       <r>    1.5092    0.0000 </r>
      </set>
      <set comment="kpoint 5">
       <r>  -37.0383    1.0000 </r>
       <r>  -36.9017    1.0000 </r>
       <r>  -36.8392    1.0000 </r>
       <r>  -14.5373    1.0000 </r>
       <r>  -14.2934    1.0000 </r>
       <r>   -7.6192    1.0000 </r>
       <r>   -7.1659    1.0000 </r>
       <r>   -6.1107    1.0000 </r>
       <r>   -5.2445    1.0000 </r>
       <r>   -5.2047    1.0000 </r>
       <r>   -4.0304    1.0000 </r>
       <r>   -2.0613    0.0685 </r>
       <r>    0.6438    0.0000 </r>
       <r>    2.0680    0.0000 </r>
       <r>    2.1046    0.0000 </r>
      </set>
     </set>
    </set>
   </array>
  </eigenvalues>
  <separator name="orbital magnetization" >
   <v name="MAGDIPOLOUT">      0.00000000      0.00000000      0.00000000</v>
  </separator>
  <dos>
   <i name="efermi">     -2.11389987 </i>
   <total>
    <array>
     <dimension dim="1">gridpoints</dimension>
     <dimension dim="2">spin</dimension>
     <field>energy</field>
     <field>total</field>
     <field>integrated</field>
     <set>
      <set comment="spin 1">
       <r>   -39.0024     0.0000     0.0000 </r>
       <r>   -38.9809     0.0000     0.0000 </r>
       <r>   -38.9594     0.0000     0.0000 </r>
       <r>   -38.9378     0.0000     0.0000 </r>
       <r>   -38.9163     0.0000     0.0000 </r>
       <r>   -38.8948     0.0000     0.0000 </r>
       <r>   -38.8732     0.0000     0.0000 </r>
       <r>   -38.8517     0.0000     0.0000 </r>
       <r>   -38.8302     0.0000     0.0000 </r>
       <r>   -38.8086     0.0000     0.0000 </r>
       <r>   -38.7871     0.0000     0.0000 </r>
       <r>   -38.7656     0.0000     0.0000 </r>
       <r>   -38.7440     0.0000     0.0000 </r>
       <r>   -38.7225     0.0000     0.0000 </r>
       <r>   -38.7010     0.0000     0.0000 </r>
       <r>   -38.6795     0.0000     0.0000 </r>
       <r>   -38.6579     0.0000     0.0000 </r>
       <r>   -38.6364     0.0000     0.0000 </r>
       <r>   -38.6149     0.0000     0.0000 </r>
       <r>   -38.5933     0.0000     0.0000 </r>
       <r>   -38.5718     0.0000     0.0000 </r>
       <r>   -38.5503     0.0000     0.0000 </r>
       <r>   -38.5287     0.0000     0.0000 </r>
       <r>   -38.5072     0.0000     0.0000 </r>
       <r>   -38.4857     0.0000     0.0000 </r>
       <r>   -38.4641     0.0000     0.0000 </r>
       <r>   -38.4426     0.0000     0.0000 </r>
       <r>   -38.4211     0.0000     0.0000 </r>
       <r>   -38.3995     0.0000     0.0000 </r>
       <r>   -38.3780     0.0000     0.0000 </r>
       <r>   -38.3565     0.0000     0.0000 </r>
       <r>   -38.3349     0.0000     0.0000 </r>
       <r>   -38.3134     0.0000     0.0000 </r>
       <r>   -38.2919     0.0000     0.0000 </r>
       <r>   -38.2703     0.0000     0.0000 </r>
       <r>   -38.2488     0.0000     0.0000 </r>
       <r>   -38.2273     0.0000     0.0000 </r>
       <r>   -38.2057     0.0000     0.0000 </r>
       <r>   -38.1842     0.0000     0.0000 </r>
       <r>   -38.1627     0.0000     0.0000 </r>
       <r>   -38.1411     0.0000     0.0000 </r>
       <r>   -38.1196     0.0000     0.0000 </r>
       <r>   -38.0981     0.0000     0.0000 </r>
       <r>   -38.0765     0.0000     0.0000 </r>
       <r>   -38.0550     0.0000     0.0000 </r>
       <r>   -38.0335     0.0000     0.0000 </r>
       <r>   -38.0120     0.0000     0.0000 </r>
       <r>   -37.9904     0.0000     0.0000 </r>
       <r>   -37.9689     0.0000     0.0000 </r>
       <r>   -37.9474     0.0000     0.0000 </r>
       <r>   -37.9258     0.0000     0.0000 </r>
       <r>   -37.9043     0.0000     0.0000 </r>
       <r>   -37.8828     0.0000     0.0000 </r>
       <r>   -37.8612     0.0000     0.0000 </r>
       <r>   -37.8397     0.0000     0.0000 </r>
       <r>   -37.8182     0.0000     0.0000 </r>
       <r>   -37.7966     0.0000     0.0000 </r>
       <r>   -37.7751     0.0000     0.0000 </r>
       <r>   -37.7536     0.0000     0.0000 </r>
       <r>   -37.7320     0.0000     0.0000 </r>
       <r>   -37.7105     0.0000     0.0000 </r>
       <r>   -37.6890     0.0000     0.0000 </r>
       <r>   -37.6674     0.0000     0.0000 </r>
       <r>   -37.6459     0.0000     0.0000 </r>
       <r>   -37.6244     0.0000     0.0000 </r>
       <r>   -37.6028     0.0000     0.0000 </r>
       <r>   -37.5813     0.0000     0.0000 </r>
       <r>   -37.5598     0.0000     0.0000 </r>
       <r>   -37.5382     0.0000     0.0000 </r>
       <r>   -37.5167     0.0000     0.0000 </r>
       <r>   -37.4952     0.0000     0.0000 </r>
       <r>   -37.4736     0.0000     0.0000 </r>
       <r>   -37.4521     0.0000     0.0000 </r>
       <r>   -37.4306     0.0000     0.0000 </r>
       <r>   -37.4090     0.0000     0.0000 </r>
       <r>   -37.3875     0.0000     0.0000 </r>
       <r>   -37.3660     0.0000     0.0000 </r>
       <r>   -37.3445     0.0000     0.0000 </r>
       <r>   -37.3229     0.0000     0.0000 </r>
       <r>   -37.3014     0.0000     0.0000 </r>
       <r>   -37.2799     0.0000     0.0000 </r>
       <r>   -37.2583     0.0000     0.0000 </r>
       <r>   -37.2368     0.0000     0.0000 </r>
       <r>   -37.2153     0.0000     0.0000 </r>
       <r>   -37.1937     0.0004     0.0000 </r>
       <r>   -37.1722     0.0048     0.0001 </r>
       <r>   -37.1507     0.0424     0.0010 </r>
       <r>   -37.1291     0.2589     0.0066 </r>
       <r>   -37.1076     1.1076     0.0304 </r>
       <r>   -37.0861     3.3297     0.1021 </r>
       <r>   -37.0645     7.0884     0.2548 </r>
       <r>   -37.0430    10.8769     0.4890 </r>
       <r>   -37.0215    12.5026     0.7582 </r>
       <r>   -36.9999    11.5410     1.0067 </r>
       <r>   -36.9784     9.4172     1.2095 </r>
       <r>   -36.9569     7.8242     1.3779 </r>
       <r>   -36.9353     8.6328     1.5638 </r>
       <r>   -36.9138    13.5754     1.8561 </r>
       <r>   -36.8923    22.3566     2.3375 </r>
       <r>   -36.8707    31.7096     3.0203 </r>
       <r>   -36.8492    36.8221     3.8132 </r>
       <r>   -36.8277    34.6652     4.5596 </r>
       <r>   -36.8061    26.8745     5.1383 </r>
       <r>   -36.7846    18.0529     5.5270 </r>
       <r>   -36.7631    11.1354     5.7667 </r>
       <r>   -36.7415     6.2782     5.9019 </r>
       <r>   -36.7200     3.0101     5.9667 </r>
       <r>   -36.6985     1.1392     5.9913 </r>
       <r>   -36.6770     0.3252     5.9983 </r>
       <r>   -36.6554     0.0683     5.9997 </r>
       <r>   -36.6339     0.0104     6.0000 </r>
       <r>   -36.6124     0.0011     6.0000 </r>
       <r>   -36.5908     0.0001     6.0000 </r>
       <r>   -36.5693     0.0000     6.0000 </r>
       <r>   -36.5478     0.0000     6.0000 </r>
       <r>   -36.5262     0.0000     6.0000 </r>
       <r>   -36.5047     0.0000     6.0000 </r>
       <r>   -36.4832     0.0000     6.0000 </r>
       <r>   -36.4616     0.0000     6.0000 </r>
       <r>   -36.4401     0.0000     6.0000 </r>
       <r>   -36.4186     0.0000     6.0000 </r>
       <r>   -36.3970     0.0000     6.0000 </r>
       <r>   -36.3755     0.0000     6.0000 </r>
       <r>   -36.3540     0.0000     6.0000 </r>
       <r>   -36.3324     0.0000     6.0000 </r>
       <r>   -36.3109     0.0000     6.0000 </r>
       <r>   -36.2894     0.0000     6.0000 </r>
       <r>   -36.2678     0.0000     6.0000 </r>
       <r>   -36.2463     0.0000     6.0000 </r>
       <r>   -36.2248     0.0000     6.0000 </r>
       <r>   -36.2032     0.0000     6.0000 </r>
       <r>   -36.1817     0.0000     6.0000 </r>
       <r>   -36.1602     0.0000     6.0000 </r>
       <r>   -36.1386     0.0000     6.0000 </r>
       <r>   -36.1171     0.0000     6.0000 </r>
       <r>   -36.0956     0.0000     6.0000 </r>
       <r>   -36.0740     0.0000     6.0000 </r>
       <r>   -36.0525     0.0000     6.0000 </r>
       <r>   -36.0310     0.0000     6.0000 </r>
       <r>   -36.0095     0.0000     6.0000 </r>
       <r>   -35.9879     0.0000     6.0000 </r>
       <r>   -35.9664     0.0000     6.0000 </r>
       <r>   -35.9449     0.0000     6.0000 </r>
       <r>   -35.9233     0.0000     6.0000 </r>
       <r>   -35.9018     0.0000     6.0000 </r>
       <r>   -35.8803     0.0000     6.0000 </r>
       <r>   -35.8587     0.0000     6.0000 </r>
       <r>   -35.8372     0.0000     6.0000 </r>
       <r>   -35.8157     0.0000     6.0000 </r>
       <r>   -35.7941     0.0000     6.0000 </r>
       <r>   -35.7726     0.0000     6.0000 </r>
       <r>   -35.7511     0.0000     6.0000 </r>
       <r>   -35.7295     0.0000     6.0000 </r>
       <r>   -35.7080     0.0000     6.0000 </r>
       <r>   -35.6865     0.0000     6.0000 </r>
       <r>   -35.6649     0.0000     6.0000 </r>
       <r>   -35.6434     0.0000     6.0000 </r>
       <r>   -35.6219     0.0000     6.0000 </r>
       <r>   -35.6003     0.0000     6.0000 </r>
       <r>   -35.5788     0.0000     6.0000 </r>
       <r>   -35.5573     0.0000     6.0000 </r>
       <r>   -35.5357     0.0000     6.0000 </r>
       <r>   -35.5142     0.0000     6.0000 </r>
       <r>   -35.4927     0.0000     6.0000 </r>
       <r>   -35.4711     0.0000     6.0000 </r>
       <r>   -35.4496     0.0000     6.0000 </r>
       <r>   -35.4281     0.0000     6.0000 </r>
       <r>   -35.4065     0.0000     6.0000 </r>
       <r>   -35.3850     0.0000     6.0000 </r>
       <r>   -35.3635     0.0000     6.0000 </r>
       <r>   -35.3419     0.0000     6.0000 </r>
       <r>   -35.3204     0.0000     6.0000 </r>
       <r>   -35.2989     0.0000     6.0000 </r>
       <r>   -35.2774     0.0000     6.0000 </r>
       <r>   -35.2558     0.0000     6.0000 </r>
       <r>   -35.2343     0.0000     6.0000 </r>
       <r>   -35.2128     0.0000     6.0000 </r>
       <r>   -35.1912     0.0000     6.0000 </r>
       <r>   -35.1697     0.0000     6.0000 </r>
       <r>   -35.1482     0.0000     6.0000 </r>
       <r>   -35.1266     0.0000     6.0000 </r>
       <r>   -35.1051     0.0000     6.0000 </r>
       <r>   -35.0836     0.0000     6.0000 </r>
       <r>   -35.0620     0.0000     6.0000 </r>
       <r>   -35.0405     0.0000     6.0000 </r>
       <r>   -35.0190     0.0000     6.0000 </r>
       <r>   -34.9974     0.0000     6.0000 </r>
       <r>   -34.9759     0.0000     6.0000 </r>
       <r>   -34.9544     0.0000     6.0000 </r>
       <r>   -34.9328     0.0000     6.0000 </r>
       <r>   -34.9113     0.0000     6.0000 </r>
       <r>   -34.8898     0.0000     6.0000 </r>
       <r>   -34.8682     0.0000     6.0000 </r>
       <r>   -34.8467     0.0000     6.0000 </r>
       <r>   -34.8252     0.0000     6.0000 </r>
       <r>   -34.8036     0.0000     6.0000 </r>
       <r>   -34.7821     0.0000     6.0000 </r>
       <r>   -34.7606     0.0000     6.0000 </r>
       <r>   -34.7390     0.0000     6.0000 </r>
       <r>   -34.7175     0.0000     6.0000 </r>
       <r>   -34.6960     0.0000     6.0000 </r>
       <r>   -34.6744     0.0000     6.0000 </r>
       <r>   -34.6529     0.0000     6.0000 </r>
       <r>   -34.6314     0.0000     6.0000 </r>
       <r>   -34.6099     0.0000     6.0000 </r>
       <r>   -34.5883     0.0000     6.0000 </r>
       <r>   -34.5668     0.0000     6.0000 </r>
       <r>   -34.5453     0.0000     6.0000 </r>
       <r>   -34.5237     0.0000     6.0000 </r>
       <r>   -34.5022     0.0000     6.0000 </r>
       <r>   -34.4807     0.0000     6.0000 </r>
       <r>   -34.4591     0.0000     6.0000 </r>
       <r>   -34.4376     0.0000     6.0000 </r>
       <r>   -34.4161     0.0000     6.0000 </r>
       <r>   -34.3945     0.0000     6.0000 </r>
       <r>   -34.3730     0.0000     6.0000 </r>
       <r>   -34.3515     0.0000     6.0000 </r>
       <r>   -34.3299     0.0000     6.0000 </r>
       <r>   -34.3084     0.0000     6.0000 </r>
       <r>   -34.2869     0.0000     6.0000 </r>
       <r>   -34.2653     0.0000     6.0000 </r>
       <r>   -34.2438     0.0000     6.0000 </r>
       <r>   -34.2223     0.0000     6.0000 </r>
       <r>   -34.2007     0.0000     6.0000 </r>
       <r>   -34.1792     0.0000     6.0000 </r>
       <r>   -34.1577     0.0000     6.0000 </r>
       <r>   -34.1361     0.0000     6.0000 </r>
       <r>   -34.1146     0.0000     6.0000 </r>
       <r>   -34.0931     0.0000     6.0000 </r>
       <r>   -34.0715     0.0000     6.0000 </r>
       <r>   -34.0500     0.0000     6.0000 </r>
       <r>   -34.0285     0.0000     6.0000 </r>
       <r>   -34.0069     0.0000     6.0000 </r>
       <r>   -33.9854     0.0000     6.0000 </r>
       <r>   -33.9639     0.0000     6.0000 </r>
       <r>   -33.9424     0.0000     6.0000 </r>
       <r>   -33.9208     0.0000     6.0000 </r>
       <r>   -33.8993     0.0000     6.0000 </r>
       <r>   -33.8778     0.0000     6.0000 </r>
       <r>   -33.8562     0.0000     6.0000 </r>
       <r>   -33.8347     0.0000     6.0000 </r>
       <r>   -33.8132     0.0000     6.0000 </r>
       <r>   -33.7916     0.0000     6.0000 </r>
       <r>   -33.7701     0.0000     6.0000 </r>
       <r>   -33.7486     0.0000     6.0000 </r>
       <r>   -33.7270     0.0000     6.0000 </r>
       <r>   -33.7055     0.0000     6.0000 </r>
       <r>   -33.6840     0.0000     6.0000 </r>
       <r>   -33.6624     0.0000     6.0000 </r>
       <r>   -33.6409     0.0000     6.0000 </r>
       <r>   -33.6194     0.0000     6.0000 </r>
       <r>   -33.5978     0.0000     6.0000 </r>
       <r>   -33.5763     0.0000     6.0000 </r>
       <r>   -33.5548     0.0000     6.0000 </r>
       <r>   -33.5332     0.0000     6.0000 </r>
       <r>   -33.5117     0.0000     6.0000 </r>
       <r>   -33.4902     0.0000     6.0000 </r>
       <r>   -33.4686     0.0000     6.0000 </r>
       <r>   -33.4471     0.0000     6.0000 </r>
       <r>   -33.4256     0.0000     6.0000 </r>
       <r>   -33.4040     0.0000     6.0000 </r>
       <r>   -33.3825     0.0000     6.0000 </r>
       <r>   -33.3610     0.0000     6.0000 </r>
       <r>   -33.3394     0.0000     6.0000 </r>
       <r>   -33.3179     0.0000     6.0000 </r>
       <r>   -33.2964     0.0000     6.0000 </r>
       <r>   -33.2749     0.0000     6.0000 </r>
       <r>   -33.2533     0.0000     6.0000 </r>
       <r>   -33.2318     0.0000     6.0000 </r>
       <r>   -33.2103     0.0000     6.0000 </r>
       <r>   -33.1887     0.0000     6.0000 </r>
       <r>   -33.1672     0.0000     6.0000 </r>
       <r>   -33.1457     0.0000     6.0000 </r>
       <r>   -33.1241     0.0000     6.0000 </r>
       <r>   -33.1026     0.0000     6.0000 </r>
       <r>   -33.0811     0.0000     6.0000 </r>
       <r>   -33.0595     0.0000     6.0000 </r>
       <r>   -33.0380     0.0000     6.0000 </r>
       <r>   -33.0165     0.0000     6.0000 </r>
       <r>   -32.9949     0.0000     6.0000 </r>
       <r>   -32.9734     0.0000     6.0000 </r>
       <r>   -32.9519     0.0000     6.0000 </r>
       <r>   -32.9303     0.0000     6.0000 </r>
       <r>   -32.9088     0.0000     6.0000 </r>
       <r>   -32.8873     0.0000     6.0000 </r>
       <r>   -32.8657     0.0000     6.0000 </r>
       <r>   -32.8442     0.0000     6.0000 </r>
       <r>   -32.8227     0.0000     6.0000 </r>
       <r>   -32.8011     0.0000     6.0000 </r>
       <r>   -32.7796     0.0000     6.0000 </r>
       <r>   -32.7581     0.0000     6.0000 </r>
       <r>   -32.7365     0.0000     6.0000 </r>
       <r>   -32.7150     0.0000     6.0000 </r>
       <r>   -32.6935     0.0000     6.0000 </r>
       <r>   -32.6719     0.0000     6.0000 </r>
       <r>   -32.6504     0.0000     6.0000 </r>
       <r>   -32.6289     0.0000     6.0000 </r>
       <r>   -32.6074     0.0000     6.0000 </r>
       <r>   -32.5858     0.0000     6.0000 </r>
       <r>   -32.5643     0.0000     6.0000 </r>
       <r>   -32.5428     0.0000     6.0000 </r>
       <r>   -32.5212     0.0000     6.0000 </r>
       <r>   -32.4997     0.0000     6.0000 </r>
       <r>   -32.4782     0.0000     6.0000 </r>
       <r>   -32.4566     0.0000     6.0000 </r>
       <r>   -32.4351     0.0000     6.0000 </r>
       <r>   -32.4136     0.0000     6.0000 </r>
       <r>   -32.3920     0.0000     6.0000 </r>
       <r>   -32.3705     0.0000     6.0000 </r>
       <r>   -32.3490     0.0000     6.0000 </r>
       <r>   -32.3274     0.0000     6.0000 </r>
       <r>   -32.3059     0.0000     6.0000 </r>
       <r>   -32.2844     0.0000     6.0000 </r>
       <r>   -32.2628     0.0000     6.0000 </r>
       <r>   -32.2413     0.0000     6.0000 </r>
       <r>   -32.2198     0.0000     6.0000 </r>
       <r>   -32.1982     0.0000     6.0000 </r>
       <r>   -32.1767     0.0000     6.0000 </r>
       <r>   -32.1552     0.0000     6.0000 </r>
       <r>   -32.1336     0.0000     6.0000 </r>
       <r>   -32.1121     0.0000     6.0000 </r>
       <r>   -32.0906     0.0000     6.0000 </r>
       <r>   -32.0690     0.0000     6.0000 </r>
       <r>   -32.0475     0.0000     6.0000 </r>
       <r>   -32.0260     0.0000     6.0000 </r>
       <r>   -32.0044     0.0000     6.0000 </r>
       <r>   -31.9829     0.0000     6.0000 </r>
       <r>   -31.9614     0.0000     6.0000 </r>
       <r>   -31.9399     0.0000     6.0000 </r>
       <r>   -31.9183     0.0000     6.0000 </r>
       <r>   -31.8968     0.0000     6.0000 </r>
       <r>   -31.8753     0.0000     6.0000 </r>
       <r>   -31.8537     0.0000     6.0000 </r>
       <r>   -31.8322     0.0000     6.0000 </r>
       <r>   -31.8107     0.0000     6.0000 </r>
       <r>   -31.7891     0.0000     6.0000 </r>
       <r>   -31.7676     0.0000     6.0000 </r>
       <r>   -31.7461     0.0000     6.0000 </r>
       <r>   -31.7245     0.0000     6.0000 </r>
       <r>   -31.7030     0.0000     6.0000 </r>
       <r>   -31.6815     0.0000     6.0000 </r>
       <r>   -31.6599     0.0000     6.0000 </r>
       <r>   -31.6384     0.0000     6.0000 </r>
       <r>   -31.6169     0.0000     6.0000 </r>
       <r>   -31.5953     0.0000     6.0000 </r>
       <r>   -31.5738     0.0000     6.0000 </r>
       <r>   -31.5523     0.0000     6.0000 </r>
       <r>   -31.5307     0.0000     6.0000 </r>
       <r>   -31.5092     0.0000     6.0000 </r>
       <r>   -31.4877     0.0000     6.0000 </r>
       <r>   -31.4661     0.0000     6.0000 </r>
       <r>   -31.4446     0.0000     6.0000 </r>
       <r>   -31.4231     0.0000     6.0000 </r>
       <r>   -31.4015     0.0000     6.0000 </r>
       <r>   -31.3800     0.0000     6.0000 </r>
       <r>   -31.3585     0.0000     6.0000 </r>
       <r>   -31.3369     0.0000     6.0000 </r>
       <r>   -31.3154     0.0000     6.0000 </r>
       <r>   -31.2939     0.0000     6.0000 </r>
       <r>   -31.2724     0.0000     6.0000 </r>
       <r>   -31.2508     0.0000     6.0000 </r>
       <r>   -31.2293     0.0000     6.0000 </r>
       <r>   -31.2078     0.0000     6.0000 </r>
       <r>   -31.1862     0.0000     6.0000 </r>
       <r>   -31.1647     0.0000     6.0000 </r>
       <r>   -31.1432     0.0000     6.0000 </r>
       <r>   -31.1216     0.0000     6.0000 </r>
       <r>   -31.1001     0.0000     6.0000 </r>
       <r>   -31.0786     0.0000     6.0000 </r>
       <r>   -31.0570     0.0000     6.0000 </r>
       <r>   -31.0355     0.0000     6.0000 </r>
       <r>   -31.0140     0.0000     6.0000 </r>
       <r>   -30.9924     0.0000     6.0000 </r>
       <r>   -30.9709     0.0000     6.0000 </r>
       <r>   -30.9494     0.0000     6.0000 </r>
       <r>   -30.9278     0.0000     6.0000 </r>
       <r>   -30.9063     0.0000     6.0000 </r>
       <r>   -30.8848     0.0000     6.0000 </r>
       <r>   -30.8632     0.0000     6.0000 </r>
       <r>   -30.8417     0.0000     6.0000 </r>
       <r>   -30.8202     0.0000     6.0000 </r>
       <r>   -30.7986     0.0000     6.0000 </r>
       <r>   -30.7771     0.0000     6.0000 </r>
       <r>   -30.7556     0.0000     6.0000 </r>
       <r>   -30.7340     0.0000     6.0000 </r>
       <r>   -30.7125     0.0000     6.0000 </r>
       <r>   -30.6910     0.0000     6.0000 </r>
       <r>   -30.6694     0.0000     6.0000 </r>
       <r>   -30.6479     0.0000     6.0000 </r>
       <r>   -30.6264     0.0000     6.0000 </r>
       <r>   -30.6049     0.0000     6.0000 </r>
       <r>   -30.5833     0.0000     6.0000 </r>
       <r>   -30.5618     0.0000     6.0000 </r>
       <r>   -30.5403     0.0000     6.0000 </r>
       <r>   -30.5187     0.0000     6.0000 </r>
       <r>   -30.4972     0.0000     6.0000 </r>
       <r>   -30.4757     0.0000     6.0000 </r>
       <r>   -30.4541     0.0000     6.0000 </r>
       <r>   -30.4326     0.0000     6.0000 </r>
       <r>   -30.4111     0.0000     6.0000 </r>
       <r>   -30.3895     0.0000     6.0000 </r>
       <r>   -30.3680     0.0000     6.0000 </r>
       <r>   -30.3465     0.0000     6.0000 </r>
       <r>   -30.3249     0.0000     6.0000 </r>
       <r>   -30.3034     0.0000     6.0000 </r>
       <r>   -30.2819     0.0000     6.0000 </r>
       <r>   -30.2603     0.0000     6.0000 </r>
       <r>   -30.2388     0.0000     6.0000 </r>
       <r>   -30.2173     0.0000     6.0000 </r>
       <r>   -30.1957     0.0000     6.0000 </r>
       <r>   -30.1742     0.0000     6.0000 </r>
       <r>   -30.1527     0.0000     6.0000 </r>
       <r>   -30.1311     0.0000     6.0000 </r>
       <r>   -30.1096     0.0000     6.0000 </r>
       <r>   -30.0881     0.0000     6.0000 </r>
       <r>   -30.0665     0.0000     6.0000 </r>
       <r>   -30.0450     0.0000     6.0000 </r>
       <r>   -30.0235     0.0000     6.0000 </r>
       <r>   -30.0019     0.0000     6.0000 </r>
       <r>   -29.9804     0.0000     6.0000 </r>
       <r>   -29.9589     0.0000     6.0000 </r>
       <r>   -29.9373     0.0000     6.0000 </r>
       <r>   -29.9158     0.0000     6.0000 </r>
       <r>   -29.8943     0.0000     6.0000 </r>
       <r>   -29.8728     0.0000     6.0000 </r>
       <r>   -29.8512     0.0000     6.0000 </r>
       <r>   -29.8297     0.0000     6.0000 </r>
       <r>   -29.8082     0.0000     6.0000 </r>
       <r>   -29.7866     0.0000     6.0000 </r>
       <r>   -29.7651     0.0000     6.0000 </r>
       <r>   -29.7436     0.0000     6.0000 </r>
       <r>   -29.7220     0.0000     6.0000 </r>
       <r>   -29.7005     0.0000     6.0000 </r>
       <r>   -29.6790     0.0000     6.0000 </r>
       <r>   -29.6574     0.0000     6.0000 </r>
       <r>   -29.6359     0.0000     6.0000 </r>
       <r>   -29.6144     0.0000     6.0000 </r>
       <r>   -29.5928     0.0000     6.0000 </r>
       <r>   -29.5713     0.0000     6.0000 </r>
       <r>   -29.5498     0.0000     6.0000 </r>
       <r>   -29.5282     0.0000     6.0000 </r>
       <r>   -29.5067     0.0000     6.0000 </r>
       <r>   -29.4852     0.0000     6.0000 </r>
       <r>   -29.4636     0.0000     6.0000 </r>
       <r>   -29.4421     0.0000     6.0000 </r>
       <r>   -29.4206     0.0000     6.0000 </r>
       <r>   -29.3990     0.0000     6.0000 </r>
       <r>   -29.3775     0.0000     6.0000 </r>
       <r>   -29.3560     0.0000     6.0000 </r>
       <r>   -29.3344     0.0000     6.0000 </r>
       <r>   -29.3129     0.0000     6.0000 </r>
       <r>   -29.2914     0.0000     6.0000 </r>
       <r>   -29.2698     0.0000     6.0000 </r>
       <r>   -29.2483     0.0000     6.0000 </r>
       <r>   -29.2268     0.0000     6.0000 </r>
       <r>   -29.2053     0.0000     6.0000 </r>
       <r>   -29.1837     0.0000     6.0000 </r>
       <r>   -29.1622     0.0000     6.0000 </r>
       <r>   -29.1407     0.0000     6.0000 </r>
       <r>   -29.1191     0.0000     6.0000 </r>
       <r>   -29.0976     0.0000     6.0000 </r>
       <r>   -29.0761     0.0000     6.0000 </r>
       <r>   -29.0545     0.0000     6.0000 </r>
       <r>   -29.0330     0.0000     6.0000 </r>
       <r>   -29.0115     0.0000     6.0000 </r>
       <r>   -28.9899     0.0000     6.0000 </r>
       <r>   -28.9684     0.0000     6.0000 </r>
       <r>   -28.9469     0.0000     6.0000 </r>
       <r>   -28.9253     0.0000     6.0000 </r>
       <r>   -28.9038     0.0000     6.0000 </r>
       <r>   -28.8823     0.0000     6.0000 </r>
       <r>   -28.8607     0.0000     6.0000 </r>
       <r>   -28.8392     0.0000     6.0000 </r>
       <r>   -28.8177     0.0000     6.0000 </r>
       <r>   -28.7961     0.0000     6.0000 </r>
       <r>   -28.7746     0.0000     6.0000 </r>
       <r>   -28.7531     0.0000     6.0000 </r>
       <r>   -28.7315     0.0000     6.0000 </r>
       <r>   -28.7100     0.0000     6.0000 </r>
       <r>   -28.6885     0.0000     6.0000 </r>
       <r>   -28.6669     0.0000     6.0000 </r>
       <r>   -28.6454     0.0000     6.0000 </r>
       <r>   -28.6239     0.0000     6.0000 </r>
       <r>   -28.6023     0.0000     6.0000 </r>
       <r>   -28.5808     0.0000     6.0000 </r>
       <r>   -28.5593     0.0000     6.0000 </r>
       <r>   -28.5378     0.0000     6.0000 </r>
       <r>   -28.5162     0.0000     6.0000 </r>
       <r>   -28.4947     0.0000     6.0000 </r>
       <r>   -28.4732     0.0000     6.0000 </r>
       <r>   -28.4516     0.0000     6.0000 </r>
       <r>   -28.4301     0.0000     6.0000 </r>
       <r>   -28.4086     0.0000     6.0000 </r>
       <r>   -28.3870     0.0000     6.0000 </r>
       <r>   -28.3655     0.0000     6.0000 </r>
       <r>   -28.3440     0.0000     6.0000 </r>
       <r>   -28.3224     0.0000     6.0000 </r>
       <r>   -28.3009     0.0000     6.0000 </r>
       <r>   -28.2794     0.0000     6.0000 </r>
       <r>   -28.2578     0.0000     6.0000 </r>
       <r>   -28.2363     0.0000     6.0000 </r>
       <r>   -28.2148     0.0000     6.0000 </r>
       <r>   -28.1932     0.0000     6.0000 </r>
       <r>   -28.1717     0.0000     6.0000 </r>
       <r>   -28.1502     0.0000     6.0000 </r>
       <r>   -28.1286     0.0000     6.0000 </r>
       <r>   -28.1071     0.0000     6.0000 </r>
       <r>   -28.0856     0.0000     6.0000 </r>
       <r>   -28.0640     0.0000     6.0000 </r>
       <r>   -28.0425     0.0000     6.0000 </r>
       <r>   -28.0210     0.0000     6.0000 </r>
       <r>   -27.9994     0.0000     6.0000 </r>
       <r>   -27.9779     0.0000     6.0000 </r>
       <r>   -27.9564     0.0000     6.0000 </r>
       <r>   -27.9348     0.0000     6.0000 </r>
       <r>   -27.9133     0.0000     6.0000 </r>
       <r>   -27.8918     0.0000     6.0000 </r>
       <r>   -27.8703     0.0000     6.0000 </r>
       <r>   -27.8487     0.0000     6.0000 </r>
       <r>   -27.8272     0.0000     6.0000 </r>
       <r>   -27.8057     0.0000     6.0000 </r>
       <r>   -27.7841     0.0000     6.0000 </r>
       <r>   -27.7626     0.0000     6.0000 </r>
       <r>   -27.7411     0.0000     6.0000 </r>
       <r>   -27.7195     0.0000     6.0000 </r>
       <r>   -27.6980     0.0000     6.0000 </r>
       <r>   -27.6765     0.0000     6.0000 </r>
       <r>   -27.6549     0.0000     6.0000 </r>
       <r>   -27.6334     0.0000     6.0000 </r>
       <r>   -27.6119     0.0000     6.0000 </r>
       <r>   -27.5903     0.0000     6.0000 </r>
       <r>   -27.5688     0.0000     6.0000 </r>
       <r>   -27.5473     0.0000     6.0000 </r>
       <r>   -27.5257     0.0000     6.0000 </r>
       <r>   -27.5042     0.0000     6.0000 </r>
       <r>   -27.4827     0.0000     6.0000 </r>
       <r>   -27.4611     0.0000     6.0000 </r>
       <r>   -27.4396     0.0000     6.0000 </r>
       <r>   -27.4181     0.0000     6.0000 </r>
       <r>   -27.3965     0.0000     6.0000 </r>
       <r>   -27.3750     0.0000     6.0000 </r>
       <r>   -27.3535     0.0000     6.0000 </r>
       <r>   -27.3319     0.0000     6.0000 </r>
       <r>   -27.3104     0.0000     6.0000 </r>
       <r>   -27.2889     0.0000     6.0000 </r>
       <r>   -27.2673     0.0000     6.0000 </r>
       <r>   -27.2458     0.0000     6.0000 </r>
       <r>   -27.2243     0.0000     6.0000 </r>
       <r>   -27.2028     0.0000     6.0000 </r>
       <r>   -27.1812     0.0000     6.0000 </r>
       <r>   -27.1597     0.0000     6.0000 </r>
       <r>   -27.1382     0.0000     6.0000 </r>
       <r>   -27.1166     0.0000     6.0000 </r>
       <r>   -27.0951     0.0000     6.0000 </r>
       <r>   -27.0736     0.0000     6.0000 </r>
       <r>   -27.0520     0.0000     6.0000 </r>
       <r>   -27.0305     0.0000     6.0000 </r>
       <r>   -27.0090     0.0000     6.0000 </r>
       <r>   -26.9874     0.0000     6.0000 </r>
       <r>   -26.9659     0.0000     6.0000 </r>
       <r>   -26.9444     0.0000     6.0000 </r>
       <r>   -26.9228     0.0000     6.0000 </r>
       <r>   -26.9013     0.0000     6.0000 </r>
       <r>   -26.8798     0.0000     6.0000 </r>
       <r>   -26.8582     0.0000     6.0000 </r>
       <r>   -26.8367     0.0000     6.0000 </r>
       <r>   -26.8152     0.0000     6.0000 </r>
       <r>   -26.7936     0.0000     6.0000 </r>
       <r>   -26.7721     0.0000     6.0000 </r>
       <r>   -26.7506     0.0000     6.0000 </r>
       <r>   -26.7290     0.0000     6.0000 </r>
       <r>   -26.7075     0.0000     6.0000 </r>
       <r>   -26.6860     0.0000     6.0000 </r>
       <r>   -26.6644     0.0000     6.0000 </r>
       <r>   -26.6429     0.0000     6.0000 </r>
       <r>   -26.6214     0.0000     6.0000 </r>
       <r>   -26.5998     0.0000     6.0000 </r>
       <r>   -26.5783     0.0000     6.0000 </r>
       <r>   -26.5568     0.0000     6.0000 </r>
       <r>   -26.5353     0.0000     6.0000 </r>
       <r>   -26.5137     0.0000     6.0000 </r>
       <r>   -26.4922     0.0000     6.0000 </r>
       <r>   -26.4707     0.0000     6.0000 </r>
       <r>   -26.4491     0.0000     6.0000 </r>
       <r>   -26.4276     0.0000     6.0000 </r>
       <r>   -26.4061     0.0000     6.0000 </r>
       <r>   -26.3845     0.0000     6.0000 </r>
       <r>   -26.3630     0.0000     6.0000 </r>
       <r>   -26.3415     0.0000     6.0000 </r>
       <r>   -26.3199     0.0000     6.0000 </r>
       <r>   -26.2984     0.0000     6.0000 </r>
       <r>   -26.2769     0.0000     6.0000 </r>
       <r>   -26.2553     0.0000     6.0000 </r>
       <r>   -26.2338     0.0000     6.0000 </r>
       <r>   -26.2123     0.0000     6.0000 </r>
       <r>   -26.1907     0.0000     6.0000 </r>
       <r>   -26.1692     0.0000     6.0000 </r>
       <r>   -26.1477     0.0000     6.0000 </r>
       <r>   -26.1261     0.0000     6.0000 </r>
       <r>   -26.1046     0.0000     6.0000 </r>
       <r>   -26.0831     0.0000     6.0000 </r>
       <r>   -26.0615     0.0000     6.0000 </r>
       <r>   -26.0400     0.0000     6.0000 </r>
       <r>   -26.0185     0.0000     6.0000 </r>
       <r>   -25.9969     0.0000     6.0000 </r>
       <r>   -25.9754     0.0000     6.0000 </r>
       <r>   -25.9539     0.0000     6.0000 </r>
       <r>   -25.9323     0.0000     6.0000 </r>
       <r>   -25.9108     0.0000     6.0000 </r>
       <r>   -25.8893     0.0000     6.0000 </r>
       <r>   -25.8678     0.0000     6.0000 </r>
       <r>   -25.8462     0.0000     6.0000 </r>
       <r>   -25.8247     0.0000     6.0000 </r>
       <r>   -25.8032     0.0000     6.0000 </r>
       <r>   -25.7816     0.0000     6.0000 </r>
       <r>   -25.7601     0.0000     6.0000 </r>
       <r>   -25.7386     0.0000     6.0000 </r>
       <r>   -25.7170     0.0000     6.0000 </r>
       <r>   -25.6955     0.0000     6.0000 </r>
       <r>   -25.6740     0.0000     6.0000 </r>
       <r>   -25.6524     0.0000     6.0000 </r>
       <r>   -25.6309     0.0000     6.0000 </r>
       <r>   -25.6094     0.0000     6.0000 </r>
       <r>   -25.5878     0.0000     6.0000 </r>
       <r>   -25.5663     0.0000     6.0000 </r>
       <r>   -25.5448     0.0000     6.0000 </r>
       <r>   -25.5232     0.0000     6.0000 </r>
       <r>   -25.5017     0.0000     6.0000 </r>
       <r>   -25.4802     0.0000     6.0000 </r>
       <r>   -25.4586     0.0000     6.0000 </r>
       <r>   -25.4371     0.0000     6.0000 </r>
       <r>   -25.4156     0.0000     6.0000 </r>
       <r>   -25.3940     0.0000     6.0000 </r>
       <r>   -25.3725     0.0000     6.0000 </r>
       <r>   -25.3510     0.0000     6.0000 </r>
       <r>   -25.3294     0.0000     6.0000 </r>
       <r>   -25.3079     0.0000     6.0000 </r>
       <r>   -25.2864     0.0000     6.0000 </r>
       <r>   -25.2648     0.0000     6.0000 </r>
       <r>   -25.2433     0.0000     6.0000 </r>
       <r>   -25.2218     0.0000     6.0000 </r>
       <r>   -25.2003     0.0000     6.0000 </r>
       <r>   -25.1787     0.0000     6.0000 </r>
       <r>   -25.1572     0.0000     6.0000 </r>
       <r>   -25.1357     0.0000     6.0000 </r>
       <r>   -25.1141     0.0000     6.0000 </r>
       <r>   -25.0926     0.0000     6.0000 </r>
       <r>   -25.0711     0.0000     6.0000 </r>
       <r>   -25.0495     0.0000     6.0000 </r>
       <r>   -25.0280     0.0000     6.0000 </r>
       <r>   -25.0065     0.0000     6.0000 </r>
       <r>   -24.9849     0.0000     6.0000 </r>
       <r>   -24.9634     0.0000     6.0000 </r>
       <r>   -24.9419     0.0000     6.0000 </r>
       <r>   -24.9203     0.0000     6.0000 </r>
       <r>   -24.8988     0.0000     6.0000 </r>
       <r>   -24.8773     0.0000     6.0000 </r>
       <r>   -24.8557     0.0000     6.0000 </r>
       <r>   -24.8342     0.0000     6.0000 </r>
       <r>   -24.8127     0.0000     6.0000 </r>
       <r>   -24.7911     0.0000     6.0000 </r>
       <r>   -24.7696     0.0000     6.0000 </r>
       <r>   -24.7481     0.0000     6.0000 </r>
       <r>   -24.7265     0.0000     6.0000 </r>
       <r>   -24.7050     0.0000     6.0000 </r>
       <r>   -24.6835     0.0000     6.0000 </r>
       <r>   -24.6619     0.0000     6.0000 </r>
       <r>   -24.6404     0.0000     6.0000 </r>
       <r>   -24.6189     0.0000     6.0000 </r>
       <r>   -24.5973     0.0000     6.0000 </r>
       <r>   -24.5758     0.0000     6.0000 </r>
       <r>   -24.5543     0.0000     6.0000 </r>
       <r>   -24.5327     0.0000     6.0000 </r>
       <r>   -24.5112     0.0000     6.0000 </r>
       <r>   -24.4897     0.0000     6.0000 </r>
       <r>   -24.4682     0.0000     6.0000 </r>
       <r>   -24.4466     0.0000     6.0000 </r>
       <r>   -24.4251     0.0000     6.0000 </r>
       <r>   -24.4036     0.0000     6.0000 </r>
       <r>   -24.3820     0.0000     6.0000 </r>
       <r>   -24.3605     0.0000     6.0000 </r>
       <r>   -24.3390     0.0000     6.0000 </r>
       <r>   -24.3174     0.0000     6.0000 </r>
       <r>   -24.2959     0.0000     6.0000 </r>
       <r>   -24.2744     0.0000     6.0000 </r>
       <r>   -24.2528     0.0000     6.0000 </r>
       <r>   -24.2313     0.0000     6.0000 </r>
       <r>   -24.2098     0.0000     6.0000 </r>
       <r>   -24.1882     0.0000     6.0000 </r>
       <r>   -24.1667     0.0000     6.0000 </r>
       <r>   -24.1452     0.0000     6.0000 </r>
       <r>   -24.1236     0.0000     6.0000 </r>
       <r>   -24.1021     0.0000     6.0000 </r>
       <r>   -24.0806     0.0000     6.0000 </r>
       <r>   -24.0590     0.0000     6.0000 </r>
       <r>   -24.0375     0.0000     6.0000 </r>
       <r>   -24.0160     0.0000     6.0000 </r>
       <r>   -23.9944     0.0000     6.0000 </r>
       <r>   -23.9729     0.0000     6.0000 </r>
       <r>   -23.9514     0.0000     6.0000 </r>
       <r>   -23.9298     0.0000     6.0000 </r>
       <r>   -23.9083     0.0000     6.0000 </r>
       <r>   -23.8868     0.0000     6.0000 </r>
       <r>   -23.8652     0.0000     6.0000 </r>
       <r>   -23.8437     0.0000     6.0000 </r>
       <r>   -23.8222     0.0000     6.0000 </r>
       <r>   -23.8007     0.0000     6.0000 </r>
       <r>   -23.7791     0.0000     6.0000 </r>
       <r>   -23.7576     0.0000     6.0000 </r>
       <r>   -23.7361     0.0000     6.0000 </r>
       <r>   -23.7145     0.0000     6.0000 </r>
       <r>   -23.6930     0.0000     6.0000 </r>
       <r>   -23.6715     0.0000     6.0000 </r>
       <r>   -23.6499     0.0000     6.0000 </r>
       <r>   -23.6284     0.0000     6.0000 </r>
       <r>   -23.6069     0.0000     6.0000 </r>
       <r>   -23.5853     0.0000     6.0000 </r>
       <r>   -23.5638     0.0000     6.0000 </r>
       <r>   -23.5423     0.0000     6.0000 </r>
       <r>   -23.5207     0.0000     6.0000 </r>
       <r>   -23.4992     0.0000     6.0000 </r>
       <r>   -23.4777     0.0000     6.0000 </r>
       <r>   -23.4561     0.0000     6.0000 </r>
       <r>   -23.4346     0.0000     6.0000 </r>
       <r>   -23.4131     0.0000     6.0000 </r>
       <r>   -23.3915     0.0000     6.0000 </r>
       <r>   -23.3700     0.0000     6.0000 </r>
       <r>   -23.3485     0.0000     6.0000 </r>
       <r>   -23.3269     0.0000     6.0000 </r>
       <r>   -23.3054     0.0000     6.0000 </r>
       <r>   -23.2839     0.0000     6.0000 </r>
       <r>   -23.2623     0.0000     6.0000 </r>
       <r>   -23.2408     0.0000     6.0000 </r>
       <r>   -23.2193     0.0000     6.0000 </r>
       <r>   -23.1977     0.0000     6.0000 </r>
       <r>   -23.1762     0.0000     6.0000 </r>
       <r>   -23.1547     0.0000     6.0000 </r>
       <r>   -23.1332     0.0000     6.0000 </r>
       <r>   -23.1116     0.0000     6.0000 </r>
       <r>   -23.0901     0.0000     6.0000 </r>
       <r>   -23.0686     0.0000     6.0000 </r>
       <r>   -23.0470     0.0000     6.0000 </r>
       <r>   -23.0255     0.0000     6.0000 </r>
       <r>   -23.0040     0.0000     6.0000 </r>
       <r>   -22.9824     0.0000     6.0000 </r>
       <r>   -22.9609     0.0000     6.0000 </r>
       <r>   -22.9394     0.0000     6.0000 </r>
       <r>   -22.9178     0.0000     6.0000 </r>
       <r>   -22.8963     0.0000     6.0000 </r>
       <r>   -22.8748     0.0000     6.0000 </r>
       <r>   -22.8532     0.0000     6.0000 </r>
       <r>   -22.8317     0.0000     6.0000 </r>
       <r>   -22.8102     0.0000     6.0000 </r>
       <r>   -22.7886     0.0000     6.0000 </r>
       <r>   -22.7671     0.0000     6.0000 </r>
       <r>   -22.7456     0.0000     6.0000 </r>
       <r>   -22.7240     0.0000     6.0000 </r>
       <r>   -22.7025     0.0000     6.0000 </r>
       <r>   -22.6810     0.0000     6.0000 </r>
       <r>   -22.6594     0.0000     6.0000 </r>
       <r>   -22.6379     0.0000     6.0000 </r>
       <r>   -22.6164     0.0000     6.0000 </r>
       <r>   -22.5948     0.0000     6.0000 </r>
       <r>   -22.5733     0.0000     6.0000 </r>
       <r>   -22.5518     0.0000     6.0000 </r>
       <r>   -22.5302     0.0000     6.0000 </r>
       <r>   -22.5087     0.0000     6.0000 </r>
       <r>   -22.4872     0.0000     6.0000 </r>
       <r>   -22.4657     0.0000     6.0000 </r>
       <r>   -22.4441     0.0000     6.0000 </r>
       <r>   -22.4226     0.0000     6.0000 </r>
       <r>   -22.4011     0.0000     6.0000 </r>
       <r>   -22.3795     0.0000     6.0000 </r>
       <r>   -22.3580     0.0000     6.0000 </r>
       <r>   -22.3365     0.0000     6.0000 </r>
       <r>   -22.3149     0.0000     6.0000 </r>
       <r>   -22.2934     0.0000     6.0000 </r>
       <r>   -22.2719     0.0000     6.0000 </r>
       <r>   -22.2503     0.0000     6.0000 </r>
       <r>   -22.2288     0.0000     6.0000 </r>
       <r>   -22.2073     0.0000     6.0000 </r>
       <r>   -22.1857     0.0000     6.0000 </r>
       <r>   -22.1642     0.0000     6.0000 </r>
       <r>   -22.1427     0.0000     6.0000 </r>
       <r>   -22.1211     0.0000     6.0000 </r>
       <r>   -22.0996     0.0000     6.0000 </r>
       <r>   -22.0781     0.0000     6.0000 </r>
       <r>   -22.0565     0.0000     6.0000 </r>
       <r>   -22.0350     0.0000     6.0000 </r>
       <r>   -22.0135     0.0000     6.0000 </r>
       <r>   -21.9919     0.0000     6.0000 </r>
       <r>   -21.9704     0.0000     6.0000 </r>
       <r>   -21.9489     0.0000     6.0000 </r>
       <r>   -21.9273     0.0000     6.0000 </r>
       <r>   -21.9058     0.0000     6.0000 </r>
       <r>   -21.8843     0.0000     6.0000 </r>
       <r>   -21.8627     0.0000     6.0000 </r>
       <r>   -21.8412     0.0000     6.0000 </r>
       <r>   -21.8197     0.0000     6.0000 </r>
       <r>   -21.7982     0.0000     6.0000 </r>
       <r>   -21.7766     0.0000     6.0000 </r>
       <r>   -21.7551     0.0000     6.0000 </r>
       <r>   -21.7336     0.0000     6.0000 </r>
       <r>   -21.7120     0.0000     6.0000 </r>
       <r>   -21.6905     0.0000     6.0000 </r>
       <r>   -21.6690     0.0000     6.0000 </r>
       <r>   -21.6474     0.0000     6.0000 </r>
       <r>   -21.6259     0.0000     6.0000 </r>
       <r>   -21.6044     0.0000     6.0000 </r>
       <r>   -21.5828     0.0000     6.0000 </r>
       <r>   -21.5613     0.0000     6.0000 </r>
       <r>   -21.5398     0.0000     6.0000 </r>
       <r>   -21.5182     0.0000     6.0000 </r>
       <r>   -21.4967     0.0000     6.0000 </r>
       <r>   -21.4752     0.0000     6.0000 </r>
       <r>   -21.4536     0.0000     6.0000 </r>
       <r>   -21.4321     0.0000     6.0000 </r>
       <r>   -21.4106     0.0000     6.0000 </r>
       <r>   -21.3890     0.0000     6.0000 </r>
       <r>   -21.3675     0.0000     6.0000 </r>
       <r>   -21.3460     0.0000     6.0000 </r>
       <r>   -21.3244     0.0000     6.0000 </r>
       <r>   -21.3029     0.0000     6.0000 </r>
       <r>   -21.2814     0.0000     6.0000 </r>
       <r>   -21.2598     0.0000     6.0000 </r>
       <r>   -21.2383     0.0000     6.0000 </r>
       <r>   -21.2168     0.0000     6.0000 </r>
       <r>   -21.1952     0.0000     6.0000 </r>
       <r>   -21.1737     0.0000     6.0000 </r>
       <r>   -21.1522     0.0000     6.0000 </r>
       <r>   -21.1307     0.0000     6.0000 </r>
       <r>   -21.1091     0.0000     6.0000 </r>
       <r>   -21.0876     0.0000     6.0000 </r>
       <r>   -21.0661     0.0000     6.0000 </r>
       <r>   -21.0445     0.0000     6.0000 </r>
       <r>   -21.0230     0.0000     6.0000 </r>
       <r>   -21.0015     0.0000     6.0000 </r>
       <r>   -20.9799     0.0000     6.0000 </r>
       <r>   -20.9584     0.0000     6.0000 </r>
       <r>   -20.9369     0.0000     6.0000 </r>
       <r>   -20.9153     0.0000     6.0000 </r>
       <r>   -20.8938     0.0000     6.0000 </r>
       <r>   -20.8723     0.0000     6.0000 </r>
       <r>   -20.8507     0.0000     6.0000 </r>
       <r>   -20.8292     0.0000     6.0000 </r>
       <r>   -20.8077     0.0000     6.0000 </r>
       <r>   -20.7861     0.0000     6.0000 </r>
       <r>   -20.7646     0.0000     6.0000 </r>
       <r>   -20.7431     0.0000     6.0000 </r>
       <r>   -20.7215     0.0000     6.0000 </r>
       <r>   -20.7000     0.0000     6.0000 </r>
       <r>   -20.6785     0.0000     6.0000 </r>
       <r>   -20.6569     0.0000     6.0000 </r>
       <r>   -20.6354     0.0000     6.0000 </r>
       <r>   -20.6139     0.0000     6.0000 </r>
       <r>   -20.5923     0.0000     6.0000 </r>
       <r>   -20.5708     0.0000     6.0000 </r>
       <r>   -20.5493     0.0000     6.0000 </r>
       <r>   -20.5277     0.0000     6.0000 </r>
       <r>   -20.5062     0.0000     6.0000 </r>
       <r>   -20.4847     0.0000     6.0000 </r>
       <r>   -20.4632     0.0000     6.0000 </r>
       <r>   -20.4416     0.0000     6.0000 </r>
       <r>   -20.4201     0.0000     6.0000 </r>
       <r>   -20.3986     0.0000     6.0000 </r>
       <r>   -20.3770     0.0000     6.0000 </r>
       <r>   -20.3555     0.0000     6.0000 </r>
       <r>   -20.3340     0.0000     6.0000 </r>
       <r>   -20.3124     0.0000     6.0000 </r>
       <r>   -20.2909     0.0000     6.0000 </r>
       <r>   -20.2694     0.0000     6.0000 </r>
       <r>   -20.2478     0.0000     6.0000 </r>
       <r>   -20.2263     0.0000     6.0000 </r>
       <r>   -20.2048     0.0000     6.0000 </r>
       <r>   -20.1832     0.0000     6.0000 </r>
       <r>   -20.1617     0.0000     6.0000 </r>
       <r>   -20.1402     0.0000     6.0000 </r>
       <r>   -20.1186     0.0000     6.0000 </r>
       <r>   -20.0971     0.0000     6.0000 </r>
       <r>   -20.0756     0.0000     6.0000 </r>
       <r>   -20.0540     0.0000     6.0000 </r>
       <r>   -20.0325     0.0000     6.0000 </r>
       <r>   -20.0110     0.0000     6.0000 </r>
       <r>   -19.9894     0.0000     6.0000 </r>
       <r>   -19.9679     0.0000     6.0000 </r>
       <r>   -19.9464     0.0000     6.0000 </r>
       <r>   -19.9248     0.0000     6.0000 </r>
       <r>   -19.9033     0.0000     6.0000 </r>
       <r>   -19.8818     0.0000     6.0000 </r>
       <r>   -19.8602     0.0000     6.0000 </r>
       <r>   -19.8387     0.0000     6.0000 </r>
       <r>   -19.8172     0.0000     6.0000 </r>
       <r>   -19.7956     0.0000     6.0000 </r>
       <r>   -19.7741     0.0000     6.0000 </r>
       <r>   -19.7526     0.0000     6.0000 </r>
       <r>   -19.7311     0.0000     6.0000 </r>
       <r>   -19.7095     0.0000     6.0000 </r>
       <r>   -19.6880     0.0000     6.0000 </r>
       <r>   -19.6665     0.0000     6.0000 </r>
       <r>   -19.6449     0.0000     6.0000 </r>
       <r>   -19.6234     0.0000     6.0000 </r>
       <r>   -19.6019     0.0000     6.0000 </r>
       <r>   -19.5803     0.0000     6.0000 </r>
       <r>   -19.5588     0.0000     6.0000 </r>
       <r>   -19.5373     0.0000     6.0000 </r>
       <r>   -19.5157     0.0000     6.0000 </r>
       <r>   -19.4942     0.0000     6.0000 </r>
       <r>   -19.4727     0.0000     6.0000 </r>
       <r>   -19.4511     0.0000     6.0000 </r>
       <r>   -19.4296     0.0000     6.0000 </r>
       <r>   -19.4081     0.0000     6.0000 </r>
       <r>   -19.3865     0.0000     6.0000 </r>
       <r>   -19.3650     0.0000     6.0000 </r>
       <r>   -19.3435     0.0000     6.0000 </r>
       <r>   -19.3219     0.0000     6.0000 </r>
       <r>   -19.3004     0.0000     6.0000 </r>
       <r>   -19.2789     0.0000     6.0000 </r>
       <r>   -19.2573     0.0000     6.0000 </r>
       <r>   -19.2358     0.0000     6.0000 </r>
       <r>   -19.2143     0.0000     6.0000 </r>
       <r>   -19.1927     0.0000     6.0000 </r>
       <r>   -19.1712     0.0000     6.0000 </r>
       <r>   -19.1497     0.0000     6.0000 </r>
       <r>   -19.1281     0.0000     6.0000 </r>
       <r>   -19.1066     0.0000     6.0000 </r>
       <r>   -19.0851     0.0000     6.0000 </r>
       <r>   -19.0636     0.0000     6.0000 </r>
       <r>   -19.0420     0.0000     6.0000 </r>
       <r>   -19.0205     0.0000     6.0000 </r>
       <r>   -18.9990     0.0000     6.0000 </r>
       <r>   -18.9774     0.0000     6.0000 </r>
       <r>   -18.9559     0.0000     6.0000 </r>
       <r>   -18.9344     0.0000     6.0000 </r>
       <r>   -18.9128     0.0000     6.0000 </r>
       <r>   -18.8913     0.0000     6.0000 </r>
       <r>   -18.8698     0.0000     6.0000 </r>
       <r>   -18.8482     0.0000     6.0000 </r>
       <r>   -18.8267     0.0000     6.0000 </r>
       <r>   -18.8052     0.0000     6.0000 </r>
       <r>   -18.7836     0.0000     6.0000 </r>
       <r>   -18.7621     0.0000     6.0000 </r>
       <r>   -18.7406     0.0000     6.0000 </r>
       <r>   -18.7190     0.0000     6.0000 </r>
       <r>   -18.6975     0.0000     6.0000 </r>
       <r>   -18.6760     0.0000     6.0000 </r>
       <r>   -18.6544     0.0000     6.0000 </r>
       <r>   -18.6329     0.0000     6.0000 </r>
       <r>   -18.6114     0.0000     6.0000 </r>
       <r>   -18.5898     0.0000     6.0000 </r>
       <r>   -18.5683     0.0000     6.0000 </r>
       <r>   -18.5468     0.0000     6.0000 </r>
       <r>   -18.5252     0.0000     6.0000 </r>
       <r>   -18.5037     0.0000     6.0000 </r>
       <r>   -18.4822     0.0000     6.0000 </r>
       <r>   -18.4606     0.0000     6.0000 </r>
       <r>   -18.4391     0.0000     6.0000 </r>
       <r>   -18.4176     0.0000     6.0000 </r>
       <r>   -18.3961     0.0000     6.0000 </r>
       <r>   -18.3745     0.0000     6.0000 </r>
       <r>   -18.3530     0.0000     6.0000 </r>
       <r>   -18.3315     0.0000     6.0000 </r>
       <r>   -18.3099     0.0000     6.0000 </r>
       <r>   -18.2884     0.0000     6.0000 </r>
       <r>   -18.2669     0.0000     6.0000 </r>
       <r>   -18.2453     0.0000     6.0000 </r>
       <r>   -18.2238     0.0000     6.0000 </r>
       <r>   -18.2023     0.0000     6.0000 </r>
       <r>   -18.1807     0.0000     6.0000 </r>
       <r>   -18.1592     0.0000     6.0000 </r>
       <r>   -18.1377     0.0000     6.0000 </r>
       <r>   -18.1161     0.0000     6.0000 </r>
       <r>   -18.0946     0.0000     6.0000 </r>
       <r>   -18.0731     0.0000     6.0000 </r>
       <r>   -18.0515     0.0000     6.0000 </r>
       <r>   -18.0300     0.0000     6.0000 </r>
       <r>   -18.0085     0.0000     6.0000 </r>
       <r>   -17.9869     0.0000     6.0000 </r>
       <r>   -17.9654     0.0000     6.0000 </r>
       <r>   -17.9439     0.0000     6.0000 </r>
       <r>   -17.9223     0.0000     6.0000 </r>
       <r>   -17.9008     0.0000     6.0000 </r>
       <r>   -17.8793     0.0000     6.0000 </r>
       <r>   -17.8577     0.0000     6.0000 </r>
       <r>   -17.8362     0.0000     6.0000 </r>
       <r>   -17.8147     0.0000     6.0000 </r>
       <r>   -17.7931     0.0000     6.0000 </r>
       <r>   -17.7716     0.0000     6.0000 </r>
       <r>   -17.7501     0.0000     6.0000 </r>
       <r>   -17.7286     0.0000     6.0000 </r>
       <r>   -17.7070     0.0000     6.0000 </r>
       <r>   -17.6855     0.0000     6.0000 </r>
       <r>   -17.6640     0.0000     6.0000 </r>
       <r>   -17.6424     0.0000     6.0000 </r>
       <r>   -17.6209     0.0000     6.0000 </r>
       <r>   -17.5994     0.0000     6.0000 </r>
       <r>   -17.5778     0.0000     6.0000 </r>
       <r>   -17.5563     0.0000     6.0000 </r>
       <r>   -17.5348     0.0000     6.0000 </r>
       <r>   -17.5132     0.0000     6.0000 </r>
       <r>   -17.4917     0.0000     6.0000 </r>
       <r>   -17.4702     0.0000     6.0000 </r>
[...]
        <r>     3.1578     0.0000     0.0000     0.0000 </r>
        <r>     3.1793     0.0000     0.0000     0.0000 </r>
        <r>     3.2008     0.0000     0.0000     0.0000 </r>
        <r>     3.2223     0.0000     0.0000     0.0000 </r>
        <r>     3.2439     0.0000     0.0000     0.0000 </r>
        <r>     3.2654     0.0000     0.0000     0.0000 </r>
        <r>     3.2869     0.0000     0.0000     0.0000 </r>
        <r>     3.3085     0.0000     0.0000     0.0000 </r>
        <r>     3.3300     0.0000     0.0000     0.0000 </r>
        <r>     3.3515     0.0000     0.0000     0.0000 </r>
        <r>     3.3731     0.0000     0.0000     0.0000 </r>
        <r>     3.3946     0.0000     0.0000     0.0000 </r>
        <r>     3.4161     0.0000     0.0000     0.0000 </r>
        <r>     3.4377     0.0000     0.0000     0.0000 </r>
        <r>     3.4592     0.0000     0.0000     0.0000 </r>
        <r>     3.4807     0.0000     0.0000     0.0000 </r>
        <r>     3.5023     0.0000     0.0000     0.0000 </r>
        <r>     3.5238     0.0000     0.0000     0.0000 </r>
        <r>     3.5453     0.0000     0.0000     0.0000 </r>
        <r>     3.5669     0.0000     0.0000     0.0000 </r>
        <r>     3.5884     0.0000     0.0000     0.0000 </r>
        <r>     3.6099     0.0000     0.0000     0.0000 </r>
        <r>     3.6315     0.0000     0.0000     0.0000 </r>
        <r>     3.6530     0.0000     0.0000     0.0000 </r>
        <r>     3.6745     0.0000     0.0000     0.0000 </r>
        <r>     3.6961     0.0000     0.0000     0.0000 </r>
        <r>     3.7176     0.0000     0.0000     0.0000 </r>
        <r>     3.7391     0.0000     0.0000     0.0000 </r>
        <r>     3.7607     0.0000     0.0000     0.0000 </r>
        <r>     3.7822     0.0000     0.0000     0.0000 </r>
        <r>     3.8037     0.0000     0.0000     0.0000 </r>
        <r>     3.8253     0.0000     0.0000     0.0000 </r>
        <r>     3.8468     0.0000     0.0000     0.0000 </r>
        <r>     3.8683     0.0000     0.0000     0.0000 </r>
        <r>     3.8898     0.0000     0.0000     0.0000 </r>
        <r>     3.9114     0.0000     0.0000     0.0000 </r>
        <r>     3.9329     0.0000     0.0000     0.0000 </r>
        <r>     3.9544     0.0000     0.0000     0.0000 </r>
        <r>     3.9760     0.0000     0.0000     0.0000 </r>
        <r>     3.9975     0.0000     0.0000     0.0000 </r>
        <r>     4.0190     0.0000     0.0000     0.0000 </r>
        <r>     4.0406     0.0000     0.0000     0.0000 </r>
        <r>     4.0621     0.0000     0.0000     0.0000 </r>
       </set>
      </set>
     </set>
    </array>
   </partial>
  </dos>
  <projected>
   <eigenvalues>
    <array>
     <dimension dim="1">band</dimension>
     <dimension dim="2">kpoint</dimension>
     <dimension dim="3">spin</dimension>
     <field>eigene</field>
     <field>occ</field>
     <set>
      <set comment="spin 1">
       <set comment="kpoint 1">
        <r>  -36.9042    1.0000 </r>
        <r>  -36.7621    1.0000 </r>
        <r>  -36.7621    1.0000 </r>
        <r>  -16.4497    1.0000 </r>
        <r>  -14.8741    1.0000 </r>
        <r>   -7.9981    1.0000 </r>
        <r>   -4.8017    1.0000 </r>
        <r>   -4.8017    1.0000 </r>
        <r>   -3.9503    1.0000 </r>
        <r>   -3.6695    1.0000 </r>
        <r>   -3.6695    1.0000 </r>
        <r>   -1.3789    0.0000 </r>
        <r>    0.9185    0.0000 </r>
        <r>    0.9191    0.0000 </r>
        <r>    1.0133    0.0000 </r>
       </set>
       <set comment="kpoint 2">
        <r>  -36.8835    1.0000 </r>
        <r>  -36.8720    1.0000 </r>
        <r>  -36.7874    1.0000 </r>
        <r>  -15.9162    1.0000 </r>
        <r>  -14.7149    1.0000 </r>
        <r>   -7.3897    1.0000 </r>
        <r>   -6.0909    1.0000 </r>
        <r>   -5.2234    1.0000 </r>
        <r>   -4.3789    1.0000 </r>
        <r>   -4.3498    1.0000 </r>
        <r>   -3.5318    1.0000 </r>
        <r>   -2.0370    0.0148 </r>
        <r>    0.6439    0.0000 </r>
        <r>    0.7918    0.0000 </r>
        <r>    1.0630    0.0000 </r>
       </set>
       <set comment="kpoint 3">
        <r>  -37.0450    1.0000 </r>
        <r>  -36.8496    1.0000 </r>
        <r>  -36.8280    1.0000 </r>
        <r>  -14.8954    1.0000 </r>
        <r>  -14.4193    1.0000 </r>
        <r>   -7.8981    1.0000 </r>
        <r>   -6.5793    1.0000 </r>
        <r>   -6.2602    1.0000 </r>
        <r>   -5.1804    1.0000 </r>
        <r>   -3.9121    1.0000 </r>
        <r>   -3.7069    1.0000 </r>
        <r>   -2.7669    1.0000 </r>
        <r>    1.1243    0.0000 </r>
        <r>    1.3458    0.0000 </r>
        <r>    1.9893    0.0000 </r>
       </set>
       <set comment="kpoint 4">
        <r>  -36.9848    1.0000 </r>
        <r>  -36.8561    1.0000 </r>
        <r>  -36.8488    1.0000 </r>
        <r>  -15.1171    1.0000 </r>
        <r>  -14.4730    1.0000 </r>
        <r>   -7.2448    1.0000 </r>
        <r>   -6.4092    1.0000 </r>
        <r>   -6.2930    1.0000 </r>
        <r>   -5.3409    1.0000 </r>
        <r>   -4.6128    1.0000 </r>
        <r>   -3.5699    1.0000 </r>
        <r>   -2.4937    1.0000 </r>
        <r>    0.5753    0.0000 </r>
        <r>    1.3696    0.0000 </r>
        <r>    1.5092    0.0000 </r>
       </set>
       <set comment="kpoint 5">
        <r>  -37.0383    1.0000 </r>
        <r>  -36.9017    1.0000 </r>
        <r>  -36.8392    1.0000 </r>
        <r>  -14.5373    1.0000 </r>
        <r>  -14.2934    1.0000 </r>
        <r>   -7.6192    1.0000 </r>
        <r>   -7.1659    1.0000 </r>
        <r>   -6.1107    1.0000 </r>
        <r>   -5.2445    1.0000 </r>
        <r>   -5.2047    1.0000 </r>
        <r>   -4.0304    1.0000 </r>
        <r>   -2.0613    0.0685 </r>
        <r>    0.6438    0.0000 </r>
        <r>    2.0680    0.0000 </r>
        <r>    2.1046    0.0000 </r>
       </set>
      </set>
     </set>
    </array>
   </eigenvalues>
   <array>
    <dimension dim="1">ion</dimension>
    <dimension dim="2">band</dimension>
    <dimension dim="3">kpoint</dimension>
    <dimension dim="4">spin</dimension>
    <field>  s  </field>
    <field>  p  </field>
    <field>  d  </field>
    <set>
     <set comment="spin1">
      <set comment="kpoint 1">
       <set comment="band 1">
        <r>  0.0000  0.9749  0.0000 </r>
        <r>  0.0015  0.0004  0.0000 </r>
        <r>  0.0015  0.0004  0.0000 </r>
       </set>
       <set comment="band 2">
        <r>  0.0000  0.9863  0.0000 </r>
        <r>  0.0000  0.0002  0.0000 </r>
        <r>  0.0000  0.0002  0.0000 </r>
       </set>
       <set comment="band 3">
        <r>  0.0000  0.9863  0.0000 </r>
        <r>  0.0000  0.0002  0.0000 </r>
        <r>  0.0000  0.0002  0.0000 </r>
       </set>
       <set comment="band 4">
        <r>  0.0823  0.0000  0.0000 </r>
        <r>  0.2637  0.0064  0.0000 </r>
        <r>  0.2637  0.0064  0.0000 </r>
       </set>
       <set comment="band 5">
        <r>  0.0000  0.0352  0.0000 </r>
        <r>  0.3158  0.0003  0.0000 </r>
        <r>  0.3158  0.0003  0.0000 </r>
       </set>
       <set comment="band 6">
        <r>  0.0812  0.0000  0.1167 </r>
        <r>  0.0301  0.1245  0.0000 </r>
        <r>  0.0301  0.1245  0.0000 </r>
       </set>
       <set comment="band 7">
        <r>  0.0000  0.0057  0.3697 </r>
        <r>  0.0000  0.1511  0.0000 </r>
        <r>  0.0000  0.1511  0.0000 </r>
       </set>
       <set comment="band 8">
        <r>  0.0000  0.0057  0.3697 </r>
        <r>  0.0000  0.1511  0.0000 </r>
        <r>  0.0000  0.1511  0.0000 </r>
       </set>
       <set comment="band 9">
        <r>  0.0000  0.0269  0.0000 </r>
        <r>  0.0002  0.2478  0.0000 </r>
        <r>  0.0002  0.2478  0.0000 </r>
       </set>
       <set comment="band 10">
        <r>  0.0000  0.0000  0.3000 </r>
        <r>  0.0000  0.2088  0.0000 </r>
        <r>  0.0000  0.2088  0.0000 </r>
       </set>
       <set comment="band 11">
        <r>  0.0000  0.0000  0.3000 </r>
        <r>  0.0000  0.2088  0.0000 </r>
        <r>  0.0000  0.2088  0.0000 </r>
       </set>
       <set comment="band 12">
        <r>  0.0094  0.0000  0.5052 </r>
        <r>  0.0021  0.0606  0.0000 </r>
        <r>  0.0021  0.0606  0.0000 </r>
       </set>
       <set comment="band 13">
        <r>  0.0000  0.0000  0.4412 </r>
        <r>  0.0000  0.1152  0.0000 </r>
        <r>  0.0000  0.1152  0.0000 </r>
       </set>
       <set comment="band 14">
        <r>  0.0000  0.0001  0.4404 </r>
        <r>  0.0000  0.1064  0.0000 </r>
        <r>  0.0000  0.1249  0.0000 </r>
       </set>
       <set comment="band 15">
        <r>  0.0000  0.0114  0.3437 </r>
        <r>  0.0000  0.1792  0.0000 </r>
        <r>  0.0000  0.1792  0.0000 </r>
       </set>
      </set>
      <set comment="kpoint 2">
       <set comment="band 1">
        <r>  0.0000  0.9766  0.0000 </r>
        <r>  0.0010  0.0005  0.0000 </r>
        <r>  0.0010  0.0005  0.0000 </r>
       </set>
       <set comment="band 2">
        <r>  0.0001  0.9804  0.0001 </r>
        <r>  0.0004  0.0003  0.0000 </r>
        <r>  0.0004  0.0003  0.0000 </r>
       </set>
       <set comment="band 3">
        <r>  0.0000  0.9852  0.0000 </r>
        <r>  0.0000  0.0002  0.0000 </r>
        <r>  0.0000  0.0002  0.0000 </r>
       </set>
       <set comment="band 4">
        <r>  0.0639  0.0099  0.0046 </r>
        <r>  0.2752  0.0073  0.0000 </r>
        <r>  0.2752  0.0073  0.0000 </r>
       </set>
       <set comment="band 5">
        <r>  0.0000  0.0260  0.0175 </r>
        <r>  0.3199  0.0013  0.0000 </r>
        <r>  0.3199  0.0013  0.0000 </r>
       </set>
       <set comment="band 6">
        <r>  0.0584  0.0100  0.1237 </r>
        <r>  0.0238  0.1409  0.0000 </r>
        <r>  0.0238  0.1409  0.0000 </r>
       </set>
       <set comment="band 7">
        <r>  0.0475  0.0133  0.2063 </r>
        <r>  0.0174  0.1420  0.0000 </r>
        <r>  0.0174  0.1420  0.0000 </r>
       </set>
       <set comment="band 8">
        <r>  0.0000  0.0027  0.2017 </r>
        <r>  0.0021  0.1989  0.0000 </r>
        <r>  0.0021  0.1989  0.0000 </r>
       </set>
       <set comment="band 9">
        <r>  0.0000  0.0000  0.3007 </r>
        <r>  0.0000  0.1967  0.0000 </r>
        <r>  0.0000  0.1967  0.0000 </r>
       </set>
       <set comment="band 10">
        <r>  0.0000  0.0186  0.2765 </r>
        <r>  0.0000  0.1858  0.0000 </r>
        <r>  0.0000  0.1858  0.0000 </r>
       </set>
       <set comment="band 11">
        <r>  0.0000  0.0375  0.0011 </r>
        <r>  0.0043  0.2622  0.0000 </r>
        <r>  0.0043  0.2622  0.0000 </r>
       </set>
       <set comment="band 12">
        <r>  0.0084  0.0050  0.5014 </r>
        <r>  0.0054  0.0638  0.0000 </r>
        <r>  0.0054  0.0638  0.0000 </r>
       </set>
       <set comment="band 13">
        <r>  0.0024  0.0036  0.4050 </r>
        <r>  0.0044  0.0911  0.0000 </r>
        <r>  0.0044  0.0911  0.0000 </r>
       </set>
       <set comment="band 14">
        <r>  0.0000  0.0078  0.4601 </r>
        <r>  0.0000  0.1230  0.0000 </r>
        <r>  0.0000  0.1230  0.0000 </r>
       </set>
       <set comment="band 15">
        <r>  0.0000  0.0054  0.4794 </r>
        <r>  0.0262  0.0496  0.0000 </r>
        <r>  0.0262  0.0496  0.0000 </r>
       </set>
      </set>
      <set comment="kpoint 3">
       <set comment="band 1">
        <r>  0.0000  0.9715  0.0000 </r>
        <r>  0.0009  0.0006  0.0000 </r>
        <r>  0.0009  0.0006  0.0000 </r>
       </set>
       <set comment="band 2">
        <r>  0.0000  0.9793  0.0000 </r>
        <r>  0.0003  0.0005  0.0000 </r>
        <r>  0.0003  0.0005  0.0000 </r>
       </set>
       <set comment="band 3">
        <r>  0.0000  0.9834  0.0000 </r>
        <r>  0.0000  0.0003  0.0000 </r>
        <r>  0.0000  0.0003  0.0000 </r>
       </set>
       <set comment="band 4">
        <r>  0.0230  0.0258  0.0225 </r>
        <r>  0.3053  0.0068  0.0000 </r>
        <r>  0.3053  0.0068  0.0000 </r>
       </set>
       <set comment="band 5">
        <r>  0.0000  0.0072  0.0535 </r>
        <r>  0.3290  0.0025  0.0000 </r>
        <r>  0.3290  0.0025  0.0000 </r>
       </set>
       <set comment="band 6">
        <r>  0.0833  0.0116  0.0956 </r>
        <r>  0.0105  0.1470  0.0000 </r>
        <r>  0.0105  0.1470  0.0000 </r>
       </set>
       <set comment="band 7">
        <r>  0.0000  0.0318  0.1046 </r>
        <r>  0.0073  0.1881  0.0000 </r>
        <r>  0.0073  0.1881  0.0000 </r>
       </set>
       <set comment="band 8">
        <r>  0.0176  0.0313  0.1291 </r>
        <r>  0.0221  0.1695  0.0000 </r>
        <r>  0.0221  0.1695  0.0000 </r>
       </set>
       <set comment="band 9">
        <r>  0.0000  0.0000  0.3008 </r>
        <r>  0.0000  0.1895  0.0000 </r>
        <r>  0.0000  0.1895  0.0000 </r>
       </set>
       <set comment="band 10">
        <r>  0.0000  0.0162  0.0898 </r>
        <r>  0.0077  0.2444  0.0000 </r>
        <r>  0.0077  0.2444  0.0000 </r>
       </set>
       <set comment="band 11">
        <r>  0.0000  0.0405  0.0736 </r>
        <r>  0.0000  0.2587  0.0000 </r>
        <r>  0.0000  0.2587  0.0000 </r>
       </set>
       <set comment="band 12">
        <r>  0.0110  0.0395  0.3929 </r>
        <r>  0.0029  0.0494  0.0000 </r>
        <r>  0.0029  0.0494  0.0000 </r>
       </set>
       <set comment="band 13">
        <r>  0.0000  0.0016  0.7635 </r>
        <r>  0.0000  0.0256  0.0000 </r>
        <r>  0.0000  0.0256  0.0000 </r>
       </set>
       <set comment="band 14">
        <r>  0.0178  0.0018  0.6188 </r>
        <r>  0.0014  0.0438  0.0000 </r>
        <r>  0.0014  0.0438  0.0000 </r>
       </set>
       <set comment="band 15">
        <r>  0.0000  0.0079  0.3629 </r>
        <r>  0.0309  0.0535  0.0000 </r>
        <r>  0.0309  0.0535  0.0000 </r>
       </set>
      </set>
      <set comment="kpoint 4">
       <set comment="band 1">
        <r>  0.0001  0.9745  0.0001 </r>
        <r>  0.0007  0.0005  0.0000 </r>
        <r>  0.0007  0.0005  0.0000 </r>
       </set>
       <set comment="band 2">
        <r>  0.0000  0.9788  0.0000 </r>
        <r>  0.0004  0.0005  0.0000 </r>
        <r>  0.0004  0.0005  0.0000 </r>
       </set>
       <set comment="band 3">
        <r>  0.0000  0.9822  0.0001 </r>
        <r>  0.0001  0.0003  0.0000 </r>
        <r>  0.0001  0.0003  0.0000 </r>
       </set>
       <set comment="band 4">
        <r>  0.0326  0.0235  0.0161 </r>
        <r>  0.2974  0.0074  0.0000 </r>
        <r>  0.2974  0.0074  0.0000 </r>
       </set>
       <set comment="band 5">
        <r>  0.0000  0.0118  0.0440 </r>
        <r>  0.3275  0.0023  0.0000 </r>
        <r>  0.3275  0.0023  0.0000 </r>
       </set>
       <set comment="band 6">
        <r>  0.0383  0.0203  0.1621 </r>
        <r>  0.0031  0.1516  0.0000 </r>
        <r>  0.0031  0.1516  0.0000 </r>
       </set>
       <set comment="band 7">
        <r>  0.0793  0.0165  0.0590 </r>
        <r>  0.0378  0.1640  0.0000 </r>
        <r>  0.0378  0.1640  0.0000 </r>
       </set>
       <set comment="band 8">
        <r>  0.0000  0.0089  0.1999 </r>
        <r>  0.0048  0.1821  0.0000 </r>
        <r>  0.0048  0.1821  0.0000 </r>
       </set>
       <set comment="band 9">
        <r>  0.0000  0.0119  0.2026 </r>
        <r>  0.0022  0.1954  0.0000 </r>
        <r>  0.0022  0.1954  0.0000 </r>
       </set>
       <set comment="band 10">
        <r>  0.0075  0.0510  0.0931 </r>
        <r>  0.0001  0.2021  0.0000 </r>
        <r>  0.0001  0.2021  0.0000 </r>
       </set>
       <set comment="band 11">
        <r>  0.0000  0.0345  0.0428 </r>
        <r>  0.0064  0.2619  0.0000 </r>
        <r>  0.0064  0.2619  0.0000 </r>
       </set>
       <set comment="band 12">
        <r>  0.0001  0.0007  0.5287 </r>
        <r>  0.0028  0.0630  0.0000 </r>
        <r>  0.0028  0.0630  0.0000 </r>
       </set>
       <set comment="band 13">
        <r>  0.0077  0.0107  0.4669 </r>
        <r>  0.0023  0.0638  0.0000 </r>
        <r>  0.0023  0.0638  0.0000 </r>
       </set>
       <set comment="band 14">
        <r>  0.0151  0.0002  0.7229 </r>
        <r>  0.0000  0.0352  0.0000 </r>
        <r>  0.0000  0.0352  0.0000 </r>
       </set>
       <set comment="band 15">
        <r>  0.0000  0.0007  0.5286 </r>
        <r>  0.0212  0.0350  0.0000 </r>
        <r>  0.0212  0.0350  0.0000 </r>
       </set>
      </set>
      <set comment="kpoint 5">
       <set comment="band 1">
        <r>  0.0000  0.9719  0.0001 </r>
        <r>  0.0009  0.0006  0.0000 </r>
        <r>  0.0009  0.0006  0.0000 </r>
       </set>
       <set comment="band 2">
        <r>  0.0000  0.9796  0.0001 </r>
        <r>  0.0002  0.0004  0.0000 </r>
        <r>  0.0002  0.0004  0.0000 </r>
       </set>
       <set comment="band 3">
        <r>  0.0000  0.9802  0.0000 </r>
        <r>  0.0001  0.0006  0.0000 </r>
        <r>  0.0001  0.0006  0.0000 </r>
       </set>
       <set comment="band 4">
        <r>  0.0053  0.0329  0.0293 </r>
        <r>  0.3190  0.0058  0.0000 </r>
        <r>  0.3190  0.0058  0.0000 </r>
       </set>
       <set comment="band 5">
        <r>  0.0000  0.0014  0.0626 </r>
        <r>  0.3348  0.0027  0.0000 </r>
        <r>  0.3348  0.0027  0.0000 </r>
       </set>
       <set comment="band 6">
        <r>  0.1005  0.0170  0.0499 </r>
        <r>  0.0031  0.1605  0.0000 </r>
        <r>  0.0031  0.1605  0.0000 </r>
       </set>
       <set comment="band 7">
        <r>  0.0000  0.0084  0.2084 </r>
        <r>  0.0025  0.1679  0.0000 </r>
        <r>  0.0025  0.1679  0.0000 </r>
       </set>
       <set comment="band 8">
        <r>  0.0022  0.0289  0.1670 </r>
        <r>  0.0177  0.1699  0.0000 </r>
        <r>  0.0177  0.1699  0.0000 </r>
       </set>
       <set comment="band 9">
        <r>  0.0000  0.0415  0.1008 </r>
        <r>  0.0012  0.2145  0.0000 </r>
        <r>  0.0012  0.2145  0.0000 </r>
       </set>
       <set comment="band 10">
        <r>  0.0236  0.0561  0.0186 </r>
        <r>  0.0093  0.2012  0.0000 </r>
        <r>  0.0093  0.2012  0.0000 </r>
       </set>
       <set comment="band 11">
        <r>  0.0000  0.0121  0.1309 </r>
        <r>  0.0112  0.2366  0.0000 </r>
        <r>  0.0112  0.2366  0.0000 </r>
       </set>
       <set comment="band 12">
        <r>  0.0027  0.0155  0.4759 </r>
        <r>  0.0001  0.0714  0.0000 </r>
        <r>  0.0001  0.0714  0.0000 </r>
       </set>
       <set comment="band 13">
        <r>  0.0288  0.0023  0.7049 </r>
        <r>  0.0000  0.0233  0.0000 </r>
        <r>  0.0000  0.0233  0.0000 </r>
       </set>
       <set comment="band 14">
        <r>  0.0055  0.0140  0.6808 </r>
        <r>  0.0041  0.0388  0.0000 </r>
        <r>  0.0041  0.0388  0.0000 </r>
       </set>
       <set comment="band 15">
        <r>  0.0000  0.0017  0.4678 </r>
        <r>  0.0015  0.0674  0.0000 </r>
        <r>  0.0015  0.0674  0.0000 </r>
       </set>
      </set>
     </set>
    </set>
   </array>
  </projected>
 </calculation>
 <structure name="finalpos" >
  <crystal>
   <varray name="basis" >
    <v>       3.31785391       0.00000000       0.00000000 </v>
    <v>      -1.65892696       2.87334578       0.00000000 </v>
    <v>       0.00000000       0.00000000      18.38460316 </v>
   </varray>
   <i name="volume">    175.26670071 </i>
   <varray name="rec_basis" >
    <v>       0.30139965       0.17401317       0.00000000 </v>
    <v>      -0.00000000       0.34802634       0.00000000 </v>
    <v>       0.00000000       0.00000000       0.05439334 </v>
   </varray>
  </crystal>
  <varray name="positions" >
   <v>       0.00000000       0.00000000       0.50000000 </v>
   <v>       0.66666667       0.33333333       0.58490063 </v>
   <v>       0.66666667       0.33333333       0.41509937 </v>
  </varray>
 </structure>
</modeling>
