    3    3    1    1
  0.5305207E+02  0.3154565E-09  0.3154565E-09  0.1846775E-08  0.5000000E-15
  1.000000000000000E-004
  CAR 
 unknown system                          
     26      5     17
 
  0.0000000E+00  0.0000000E+00  0.0000000E+00  0.4000000E-01
    1      -62.456576   1.000000
    2      -36.616146   1.000000
    3      -36.378193   1.000000
    4      -36.378192   1.000000
    5      -15.777527   1.000000
    6      -14.470899   1.000000
    7       -7.308061   1.000000
    8       -4.192891   1.000000
    9       -4.192891   1.000000
   10       -3.469654   1.000000
   11       -3.069168   1.000000
   12       -3.069168   1.000000
   13       -1.699760   1.000000
   14        1.219960   0.000000
   15        1.219960   0.000000
   16        1.456860   0.000000
   17        1.456861   0.000000
 
  0.2000000E+00 -0.5420725E-17  0.0000000E+00  0.2400000E+00
    1      -62.442067   1.000000
    2      -36.587855   1.000000
    3      -36.520984   1.000000
    4      -36.410791   1.000000
    5      -15.202730   1.000000
    6      -14.231988   1.000000
    7       -6.755147   1.000000
    8       -5.188990   1.000000
    9       -4.841688   1.000000
   10       -3.814088   1.000000
   11       -3.608716   1.000000
   12       -2.791846   1.000000
   13       -2.114090   1.000000
   14        0.585650   0.000000
   15        0.945880   0.000000
   16        1.117457   0.000000
   17        1.998258   0.000000
 
  0.4000000E+00 -0.1750603E-16  0.0000000E+00  0.2400000E+00
    1      -62.418485   1.000000
    2      -36.745554   1.000000
    3      -36.541774   1.000000
    4      -36.463071   1.000000
    5      -14.061216   1.000000
    6      -13.773640   1.000000
    7       -7.229951   1.000000
    8       -6.245167   1.000000
    9       -5.621094   1.000000
   10       -4.654688   1.000000
   11       -3.462586   1.000000
   12       -2.665316   1.000000
   13       -2.489535   1.000000
   14        0.675925   0.000000
   15        0.989296   0.000000
   16        2.144296   0.000000
   17        2.688308   0.000000
 
  0.2000000E+00  0.2000000E+00  0.0000000E+00  0.2400000E+00
    1      -62.422996   1.000000
    2      -36.667171   1.000000
    3      -36.550632   1.000000
    4      -36.490509   1.000000
    5      -14.318007   1.000000
    6      -13.861364   1.000000
    7       -6.704425   1.000000
    8       -5.866320   1.000000
    9       -5.344749   1.000000
   10       -4.987331   1.000000
   11       -3.857382   1.000000
   12       -2.869823   1.000000
   13       -2.387027   1.000000
   14        0.398073   0.000000
   15        1.020533   0.000000
   16        1.310147   0.000000
   17        2.855251   0.000000
 
  0.4000000E+00  0.2000000E+00  0.0000000E+00  0.2400000E+00
    1      -62.411183   1.000000
    2      -36.736602   1.000000
    3      -36.559235   1.000000
    4      -36.527530   1.000000
    5      -13.651113   1.000000
    6      -13.577651   1.000000
    7       -6.904598   1.000000
    8       -6.866417   1.000000
    9       -5.567853   1.000000
   10       -4.741296   1.000000
   11       -4.347168   1.000000
   12       -3.599626   1.000000
   13       -1.857453   1.000000
   14        0.511112   0.000000
   15        1.647789   0.000000
   16        1.721245   0.000000
   17        3.038888   0.000000
