<?xml version="1.0" encoding="ISO-8859-1"?>
<modeling>
 <generator>
  <i name="program" type="string">vasp </i>
  <i name="version" type="string">6.2.1  </i>
  <i name="subversion" type="string">16May21 (build Jul 15 2021 16:58:06) complex                          parallel </i>
  <i name="platform" type="string">LinuxIFC </i>
  <i name="date" type="string">2025 10 01 </i>
  <i name="time" type="string">13:58:21 </i>
 </generator>
 <incar>
  <i type="int" name="ISTART">     0</i>
  <i type="string" name="PREC">Normal   (Precision level: Normal or Accurate, set Accurate when perform structure lattice relaxation calculation)</i>
  <i type="string" name="ALGO">Normal</i>
  <i type="logical" name="ADDGRID"> T  </i>
  <i type="int" name="ISPIN">     1</i>
  <i type="int" name="NELM">  2000</i>
  <i type="int" name="NELMIN">     6</i>
  <i name="EDIFF">      0.00000001</i>
  <i name="SYMPREC">      0.00000100</i>
  <i name="ENCUT">    500.00000000</i>
  <i type="int" name="NEDOS">  2001</i>
  <i type="logical" name="LREAL"> F  </i>
  <i type="int" name="ISMEAR">     0</i>
  <i name="SIGMA">      0.05000000</i>
  <i type="logical" name="LWAVE"> T  </i>
  <i type="logical" name="LCHARG"> T  </i>
  <i type="logical" name="LVTOT"> T  </i>
  <i type="int" name="LORBIT">    10</i>
  <i type="int" name="IVDW">    12</i>
 </incar>
 <primitive_cell>
  <structure name="primitive_cell" >
   <crystal>
    <varray name="basis" >
     <v>       3.15456502       0.00000000       0.00000000 </v>
     <v>      -1.57728251       2.73193344       0.00000000 </v>
     <v>       0.00000000       0.00000000      18.46774854 </v>
    </varray>
    <i name="volume">    159.15619590 </i>
    <varray name="rec_basis" >
     <v>       0.31700092       0.18302056       0.00000000 </v>
     <v>       0.00000000       0.36604113       0.00000000 </v>
     <v>       0.00000000       0.00000000       0.05414845 </v>
    </varray>
   </crystal>
   <varray name="positions" >
    <v>       0.00000000       0.00000000       0.50000000 </v>
    <v>       0.66666667       0.33333333       0.58483600 </v>
    <v>       0.66666667       0.33333333       0.41516400 </v>
   </varray>
  </structure>
  <varray name="primitive_index" >
   <v type="int" >        1 </v>
   <v type="int" >        2 </v>
   <v type="int" >        3 </v>
  </varray>
 </primitive_cell>
 <kpoints>
  <generation param="Gamma">
   <v type="int" name="divisions">       5        5        1 </v>
   <v name="usershift">      0.00000000       0.00000000       0.00000000 </v>
   <v name="genvec1">      0.20000000       0.00000000       0.00000000 </v>
   <v name="genvec2">      0.00000000       0.20000000       0.00000000 </v>
   <v name="genvec3">      0.00000000       0.00000000       1.00000000 </v>
   <v name="shift">      0.00000000       0.00000000       0.00000000 </v>
  </generation>
  <varray name="kpointlist" >
   <v>       0.00000000       0.00000000       0.00000000 </v>
   <v>       0.20000000      -0.00000000       0.00000000 </v>
   <v>       0.40000000      -0.00000000       0.00000000 </v>
   <v>       0.20000000       0.20000000       0.00000000 </v>
   <v>       0.40000000       0.20000000       0.00000000 </v>
  </varray>
  <varray name="weights" >
   <v>       0.04000000 </v>
   <v>       0.24000000 </v>
   <v>       0.24000000 </v>
   <v>       0.24000000 </v>
   <v>       0.24000000 </v>
  </varray>
 </kpoints>
 <parameters>
  <separator name="general" >
   <i type="string" name="SYSTEM">unknown system</i>
   <i type="logical" name="LCOMPAT"> F  </i>
  </separator>
  <separator name="electronic" >
   <i type="string" name="PREC">normal</i>
   <i name="ENMAX">    500.00000000</i>
   <i name="ENAUG">    446.01400000</i>
   <i name="EDIFF">      0.00000001</i>
   <i type="int" name="IALGO">    38</i>
   <i type="int" name="IWAVPR">    10</i>
   <i type="int" name="NBANDS">    17</i>
   <i type="int" name="NBANDSLOW">    -1</i>
   <i type="int" name="NBANDSHIGH">    -1</i>
   <i name="NELECT">     26.00000000</i>
   <i type="int" name="TURBO">     0</i>
   <i type="int" name="IRESTART">     0</i>
   <i type="int" name="NREBOOT">     0</i>
   <i type="int" name="NMIN">     0</i>
   <i name="EREF">      0.00000000</i>
   <separator name="electronic smearing" >
    <i type="int" name="ISMEAR">     0</i>
    <i name="SIGMA">      0.05000000</i>
    <i name="KSPACING">      0.50000000</i>
    <i type="logical" name="KGAMMA"> T  </i>
    <i type="logical" name="KBLOWUP"> T  </i>
   </separator>
   <separator name="electronic projectors" >
    <i type="logical" name="LREAL"> F  </i>
    <v name="ROPT">      0.00000000      0.00000000</v>
    <i type="int" name="LMAXPAW">  -100</i>
    <i type="int" name="LMAXMIX">     2</i>
    <i type="logical" name="NLSPLINE"> F  </i>
   </separator>
   <separator name="electronic startup" >
    <i type="int" name="ISTART">     0</i>
    <i type="int" name="ICHARG">     2</i>
    <i type="int" name="INIWAV">     1</i>
   </separator>
   <separator name="electronic spin" >
    <i type="int" name="ISPIN">     1</i>
    <i type="logical" name="LNONCOLLINEAR"> F  </i>
    <v name="MAGMOM">      1.00000000      1.00000000      1.00000000</v>
    <i name="NUPDOWN">     -1.00000000</i>
    <i type="logical" name="LSORBIT"> F  </i>
    <v name="SAXIS">      0.00000000      0.00000000      1.00000000</v>
    <i type="logical" name="LSPIRAL"> F  </i>
    <v name="QSPIRAL">      0.00000000      0.00000000      0.00000000</v>
    <i type="logical" name="LZEROZ"> F  </i>
   </separator>
   <separator name="electronic exchange-correlation" >
    <i type="logical" name="LASPH"> F  </i>
    <i type="logical" name="LMETAGGA"> F  </i>
   </separator>
   <separator name="electronic convergence" >
    <i type="int" name="NELM">  2000</i>
    <i type="int" name="NELMDL">    -5</i>
    <i type="int" name="NELMIN">     6</i>
    <i name="ENINI">    500.00000000</i>
    <separator name="electronic convergence detail" >
     <i type="logical" name="LDIAG"> T  </i>
     <i type="logical" name="LSUBROT"> F  </i>
     <i name="WEIMIN">      0.00000000</i>
     <i name="EBREAK">      0.00000000</i>
     <i name="DEPER">      0.30000000</i>
     <i type="int" name="NRMM">     4</i>
     <i name="TIME">      0.40000000</i>
    </separator>
   </separator>
   <separator name="electronic mixer" >
    <i name="AMIX">      0.40000000</i>
    <i name="BMIX">      1.00000000</i>
    <i name="AMIN">      0.10000000</i>
    <i name="AMIX_MAG">      1.60000000</i>
    <i name="BMIX_MAG">      1.00000000</i>
    <separator name="electronic mixer details" >
     <i type="int" name="IMIX">     4</i>
     <i type="logical" name="MIXFIRST"> F  </i>
     <i type="int" name="MAXMIX">   -45</i>
     <i name="WC">    100.00000000</i>
     <i type="int" name="INIMIX">     1</i>
     <i type="int" name="MIXPRE">     1</i>
     <i type="int" name="MREMOVE">     5</i>
    </separator>
   </separator>
   <separator name="electronic dipolcorrection" >
    <i type="logical" name="LDIPOL"> F  </i>
    <i type="logical" name="LMONO"> F  </i>
    <i type="int" name="IDIPOL">     0</i>
    <i name="EPSILON">      1.00000000</i>
    <v name="DIPOL">   -100.00000000   -100.00000000   -100.00000000</v>
    <i name="EFIELD">      0.00000000</i>
   </separator>
  </separator>
  <separator name="grids" >
   <i type="int" name="NGX">    18</i>
   <i type="int" name="NGY">    18</i>
   <i type="int" name="NGZ">   108</i>
   <i type="int" name="NGXF">    36</i>
   <i type="int" name="NGYF">    36</i>
   <i type="int" name="NGZF">   216</i>
   <i type="logical" name="ADDGRID"> T  </i>
  </separator>
  <separator name="ionic" >
   <i type="int" name="NSW">     0</i>
   <i type="int" name="IBRION">    -1</i>
   <i type="int" name="MDALGO">     0</i>
   <i type="int" name="ISIF">     2</i>
   <i name="PSTRESS">      0.00000000</i>
   <i name="EDIFFG">      0.00000010</i>
   <i type="int" name="NFREE">     0</i>
   <i name="POTIM">      0.50000000</i>
   <i name="SMASS">     -3.00000000</i>
   <i name="SCALEE">      1.00000000</i>
  </separator>
  <separator name="ionic md" >
   <i name="TEBEG">      0.00010000</i>
   <i name="TEEND">      0.00010000</i>
   <i type="int" name="NBLOCK">     1</i>
   <i type="int" name="KBLOCK">     1</i>
   <i type="int" name="NPACO">   256</i>
   <i name="APACO">     16.00000000</i>
  </separator>
  <separator name="symmetry" >
   <i type="int" name="ISYM">     2</i>
   <i name="SYMPREC">      0.00000100</i>
  </separator>
  <separator name="dos" >
   <i type="int" name="LORBIT">    10</i>
   <v name="RWIGS">     -1.00000000     -1.00000000</v>
   <i type="int" name="NEDOS">  2001</i>
   <i name="EMIN">     10.00000000</i>
   <i name="EMAX">    -10.00000000</i>
   <i name="EFERMI">      0.00000000</i>
  </separator>
  <separator name="writing" >
   <i type="int" name="NWRITE">     2</i>
   <i type="logical" name="LWAVE"> T  </i>
   <i type="logical" name="LDOWNSAMPLE"> F  </i>
   <i type="logical" name="LCHARG"> T  </i>
   <i type="logical" name="LPARD"> F  </i>
   <i type="logical" name="LVTOT"> T  </i>
   <i type="logical" name="LVHAR"> F  </i>
   <i type="logical" name="LELF"> F  </i>
   <i type="logical" name="LOPTICS"> F  </i>
   <v name="STM">      0.00000000      0.00000000      0.00000000      0.00000000      0.00000000      0.00000000      0.00000000</v>
  </separator>
  <separator name="performance" >
   <i type="int" name="NPAR">     1</i>
   <i type="int" name="NSIM">     4</i>
   <i type="int" name="NBLK">    -1</i>
   <i type="logical" name="LPLANE"> T  </i>
   <i type="logical" name="LSCALAPACK"> T  </i>
   <i type="logical" name="LSCAAWARE"> F  </i>
   <i type="logical" name="LSCALU"> F  </i>
   <i type="logical" name="LASYNC"> F  </i>
   <i type="logical" name="LORBITALREAL"> F  </i>
  </separator>
  <separator name="miscellaneous" >
   <i type="int" name="IDIOT">     3</i>
   <i type="int" name="PHON_NSTRUCT">    -1</i>
   <i type="logical" name="LMUSIC"> F  </i>
   <v name="POMASS">     95.94000000     32.06600000</v>
   <v name="DARWINR">      0.00000000      0.00000000</v>
   <v name="DARWINV">      1.00000000      1.00000000</v>
   <i type="logical" name="LCORR"> T  </i>
  </separator>
  <i type="logical" name="GGA_COMPAT"> T  </i>
  <i type="logical" name="LBERRY"> F  </i>
  <i type="int" name="ICORELEVEL">     0</i>
  <i type="logical" name="LDAU"> F  </i>
  <i type="int" name="I_CONSTRAINED_M">     0</i>
  <separator name="electronic exchange-correlation" >
   <i type="string" name="GGA">--</i>
   <i type="int" name="VOSKOWN">     0</i>
   <i type="logical" name="LHFCALC"> F  </i>
   <i type="string" name="PRECFOCK"></i>
   <i type="logical" name="LSYMGRAD"> F  </i>
   <i type="logical" name="LHFONE"> F  </i>
   <i type="logical" name="LRHFCALC"> F  </i>
   <i type="logical" name="LTHOMAS"> F  </i>
   <i type="logical" name="LMODELHF"> F  </i>
   <i type="logical" name="LFOCKACE"> F  </i>
   <i name="ENCUT4O">     -1.00000000</i>
   <i type="int" name="EXXOEP">     0</i>
   <i type="int" name="FOURORBIT">     0</i>
   <i name="AEXX">      0.00000000</i>
   <i name="HFALPHA">      0.00000000</i>
   <i name="MCALPHA">      0.00000000</i>
   <i name="ALDAX">      1.00000000</i>
   <i name="AGGAX">      1.00000000</i>
   <i name="ALDAC">      1.00000000</i>
   <i name="AGGAC">      1.00000000</i>
   <i type="int" name="NKREDX">     1</i>
   <i type="int" name="NKREDY">     1</i>
   <i type="int" name="NKREDZ">     1</i>
   <i type="logical" name="SHIFTRED"> F  </i>
   <i type="logical" name="ODDONLY"> F  </i>
   <i type="logical" name="EVENONLY"> F  </i>
   <i type="int" name="LMAXFOCK">     0</i>
   <i type="int" name="NMAXFOCKAE">     0</i>
   <i type="logical" name="LFOCKAEDFT"> F  </i>
   <i name="HFSCREEN">      0.00000000</i>
   <i name="HFSCREENC">      0.00000000</i>
   <i type="int" name="NBANDSGWLOW">     0</i>
  </separator>
  <separator name="vdW DFT" >
   <i type="logical" name="LUSE_VDW"> F  </i>
   <i name="Zab_VDW">     -0.84910000</i>
   <i name="PARAM1">      0.12340000</i>
   <i name="PARAM2">      1.00000000</i>
   <i name="PARAM3">      0.00000000</i>
  </separator>
  <separator name="model GW" >
   <i type="int" name="MODEL_GW">     0</i>
   <i name="MODEL_EPS0">     31.83123918</i>
   <i name="MODEL_ALPHA">      1.00000000</i>
  </separator>
  <separator name="linear response parameters" >
   <i type="logical" name="LEPSILON"> F  </i>
   <i type="logical" name="LRPA"> F  </i>
   <i type="logical" name="LNABLA"> F  </i>
   <i type="logical" name="LVEL"> F  </i>
   <i type="int" name="KINTER">     0</i>
   <i name="CSHIFT">      0.10000000</i>
   <i name="OMEGAMAX">     -1.00000000</i>
   <i name="DEG_THRESHOLD">      0.00200000</i>
   <i name="RTIME">     -0.10000000</i>
   <i name="WPLASMAI">      0.00000000</i>
   <v name="DFIELD">      0.00000000      0.00000000      0.00000000</v>
   <v name="WPLASMA">      0.00000000      0.00000000      0.00000000      0.00000000      0.00000000      0.00000000      0.00000000      0.00000000      0.00000000</v>
  </separator>
  <separator name="orbital magnetization" >
   <i type="logical" name="NUCIND"> F  </i>
   <v name="MAGPOS">      0.00000000      0.00000000      0.00000000</v>
   <i type="logical" name="LNICSALL"> T  </i>
   <i type="logical" name="ORBITALMAG"> F  </i>
   <i type="logical" name="LMAGBLOCH"> F  </i>
   <i type="logical" name="LCHIMAG"> F  </i>
   <i type="logical" name="LGAUGE"> T  </i>
   <i type="int" name="MAGATOM">     0</i>
   <v name="MAGDIPOL">      0.00000000      0.00000000      0.00000000</v>
   <v name="AVECCONST">      0.00000000      0.00000000      0.00000000</v>
  </separator>
  <separator name="response functions" >
   <i type="logical" name="LFINITE_TEMPERATURE"> F  </i>
   <i type="logical" name="LADDER"> F  </i>
   <i type="logical" name="LRPAFORCE"> F  </i>
   <i type="logical" name="LFXC"> F  </i>
   <i type="logical" name="LHARTREE"> T  </i>
   <i type="int" name="IBSE">     0</i>
   <v type="int" name="KPOINT">    -1     0     0     0</v>
   <i type="logical" name="LTCTC"> F  </i>
   <i type="logical" name="LTCTE"> F  </i>
   <i type="logical" name="LTETE"> F  </i>
   <i type="logical" name="LTRIPLET"> F  </i>
   <i type="logical" name="LFXCEPS"> F  </i>
   <i type="logical" name="LFXHEG"> F  </i>
   <i type="int" name="NATURALO">     2</i>
   <i type="logical" name="LHOLEGF"> F  </i>
   <i type="logical" name="L2ORDER"> F  </i>
   <i type="logical" name="LDMP1"> F  </i>
   <i type="logical" name="LMP2LT"> F  </i>
   <i type="logical" name="LSMP2LT"> F  </i>
   <i type="logical" name="LGWLF"> F  </i>
   <i name="ENCUTGW">     -2.00000000</i>
   <i name="ENCUTGWSOFT">     -2.00000000</i>
   <i name="ENCUTLF">     -1.00000000</i>
   <i type="logical" name="LESF_SPLINES"> F  </i>
   <i type="int" name="LMAXMP2">    -1</i>
   <i name="SCISSOR">      0.00000000</i>
   <i type="int" name="NOMEGA">     0</i>
   <i type="int" name="NOMEGAR">     0</i>
   <i type="int" name="NBANDSGW">    -1</i>
   <i type="int" name="NBANDSO">    -1</i>
   <i type="int" name="NBANDSV">    -1</i>
   <i type="int" name="NELM">  2000</i>
   <i type="int" name="NELMHF">     1</i>
   <i type="int" name="DIM">     3</i>
   <i type="int" name="IESPILON">     4</i>
   <i type="int" name="ANTIRES">     0</i>
   <i name="OMEGAMAX">    -30.00000000</i>
   <i name="OMEGAMIN">    -30.00000000</i>
   <i name="OMEGATL">   -200.00000000</i>
   <i type="int" name="OMEGAGRID">     0</i>
   <i name="CSHIFT">     -0.10000000</i>
   <i type="logical" name="LSELFENERGY"> F  </i>
   <i type="logical" name="LSPECTRAL"> F  </i>
   <i type="logical" name="LSPECTRALGW"> F  </i>
   <i type="logical" name="LSINGLES"> F  </i>
   <i type="logical" name="LFERMIGW"> F  </i>
   <i type="logical" name="ODDONLYGW"> F  </i>
   <i type="logical" name="EVENONLYGW"> F  </i>
   <i type="int" name="NKREDLFX">     1</i>
   <i type="int" name="NKREDLFY">     1</i>
   <i type="int" name="NKREDLFZ">     1</i>
   <i type="int" name="MAXMEM">  2800</i>
   <i type="int" name="TELESCOPE">     0</i>
   <i type="int" name="NTAUPAR">    -1</i>
   <i type="int" name="NOMEGAPAR">    -1</i>
   <i name="DAMP_NEWTON">      0.80000001</i>
   <i name="LAMBDA">      1.00000000</i>
  </separator>
  <separator name="External order field" >
   <i name="OFIELD_KAPPA">      0.00000000</i>
   <v name="OFIELD_K">      0.00000000      0.00000000      0.00000000</v>
   <i name="OFIELD_Q6_NEAR">      0.00000000</i>
   <i name="OFIELD_Q6_FAR">      0.00000000</i>
   <i name="OFIELD_A">      0.00000000</i>
  </separator>
 </parameters>
 <atominfo>
  <atoms>       3 </atoms>
  <types>       2 </types>
  <array name="atoms" >
   <dimension dim="1">ion</dimension>
   <field type="string">element</field>
   <field type="int">atomtype</field>
   <set>
    <rc><c>Mo</c><c>   1</c></rc>
    <rc><c>S </c><c>   2</c></rc>
    <rc><c>S </c><c>   2</c></rc>
   </set>
  </array>
  <array name="atomtypes" >
   <dimension dim="1">type</dimension>
   <field type="int">atomspertype</field>
   <field type="string">element</field>
   <field>mass</field>
   <field>valence</field>
   <field type="string">pseudopotential</field>
   <set>
    <rc><c>   1</c><c>Mo</c><c>     95.94000000</c><c>     14.00000000</c><c>  PAW_PBE Mo_sv 02Feb2006               </c></rc>
    <rc><c>   2</c><c>S </c><c>     32.06600000</c><c>      6.00000000</c><c>  PAW_PBE S 06Sep2000                   </c></rc>
   </set>
  </array>
 </atominfo>
 <structure name="initialpos" >
  <crystal>
   <varray name="basis" >
    <v>       3.15456502       0.00000000       0.00000000 </v>
    <v>      -1.57728251       2.73193344       0.00000000 </v>
    <v>       0.00000000       0.00000000      18.46774854 </v>
   </varray>
   <i name="volume">    159.15619590 </i>
   <varray name="rec_basis" >
    <v>       0.31700092       0.18302056       0.00000000 </v>
    <v>       0.00000000       0.36604113       0.00000000 </v>
    <v>       0.00000000       0.00000000       0.05414845 </v>
   </varray>
  </crystal>
  <varray name="positions" >
   <v>       0.00000000       0.00000000       0.50000000 </v>
   <v>       0.66666667       0.33333333       0.58483600 </v>
   <v>       0.66666667       0.33333333       0.41516400 </v>
  </varray>
 </structure>
 <calculation>
  <scstep>
   <time name="dav">    1.53    1.53</time>
   <time name="total">    2.08    2.08</time>
   <energy>
    <i name="alphaZ">     29.72338735 </i>
    <i name="ewald">   4774.92888675 </i>
    <i name="hartreedc">  -6892.36413935 </i>
    <i name="XCdc">     91.52297675 </i>
    <i name="pawpsdc">   1932.78902129 </i>
    <i name="pawaedc">  -1907.92410740 </i>
    <i name="eentropy">     -0.00300093 </i>
    <i name="bandstr">   -272.70164578 </i>
    <i name="atom">   2415.92131437 </i>
    <i name="e_fr_energy">    171.89269307 </i>
    <i name="e_wo_entrp">    171.89569400 </i>
    <i name="e_0_energy">    171.89419353 </i>
   </energy>
  </scstep>
  <scstep>
   <time name="dav">    1.61    1.62</time>
   <time name="total">    1.62    1.62</time>
   <energy>
    <i name="e_fr_energy">    -12.18505463 </i>
    <i name="e_wo_entrp">    -12.18505463 </i>
    <i name="e_0_energy">    -12.18505463 </i>
   </energy>
  </scstep>
  <scstep>
   <time name="dav">    1.56    1.56</time>
   <time name="total">    1.56    1.56</time>
   <energy>
    <i name="e_fr_energy">    -23.16428850 </i>
    <i name="e_wo_entrp">    -23.16428850 </i>
    <i name="e_0_energy">    -23.16428850 </i>
   </energy>
  </scstep>
  <scstep>
   <time name="dav">    1.52    1.52</time>
   <time name="total">    1.52    1.52</time>
   <energy>
    <i name="e_fr_energy">    -23.32153831 </i>
    <i name="e_wo_entrp">    -23.32153831 </i>
    <i name="e_0_energy">    -23.32153831 </i>
   </energy>
  </scstep>
  <scstep>
   <time name="dav">    1.48    1.48</time>
   <time name="total">    1.79    1.79</time>
   <energy>
    <i name="e_fr_energy">    -23.32542399 </i>
    <i name="e_wo_entrp">    -23.32542399 </i>
    <i name="e_0_energy">    -23.32542399 </i>
   </energy>
  </scstep>
  <scstep>
   <time name="dav">    1.36    1.36</time>
   <time name="total">    2.21    2.21</time>
   <energy>
    <i name="e_fr_energy">    -22.23703061 </i>
    <i name="e_wo_entrp">    -22.23703061 </i>
    <i name="e_0_energy">    -22.23703061 </i>
   </energy>
  </scstep>
  <scstep>
   <time name="dav">    1.30    1.30</time>
   <time name="total">    2.14    2.14</time>
   <energy>
    <i name="e_fr_energy">    -22.05079580 </i>
    <i name="e_wo_entrp">    -22.05079580 </i>
    <i name="e_0_energy">    -22.05079580 </i>
   </energy>
  </scstep>
  <scstep>
   <time name="dav">    1.35    1.35</time>
   <time name="total">    2.17    2.18</time>
   <energy>
    <i name="e_fr_energy">    -21.83948358 </i>
    <i name="e_wo_entrp">    -21.83948358 </i>
    <i name="e_0_energy">    -21.83948358 </i>
   </energy>
  </scstep>
  <scstep>
   <time name="dav">    1.52    1.52</time>
   <time name="total">    2.33    2.33</time>
   <energy>
    <i name="e_fr_energy">    -21.84056487 </i>
    <i name="e_wo_entrp">    -21.84056487 </i>
    <i name="e_0_energy">    -21.84056487 </i>
   </energy>
  </scstep>
  <scstep>
   <time name="dav">    1.31    1.31</time>
   <time name="total">    2.14    2.14</time>
   <energy>
    <i name="e_fr_energy">    -21.83603318 </i>
    <i name="e_wo_entrp">    -21.83603318 </i>
    <i name="e_0_energy">    -21.83603318 </i>
   </energy>
  </scstep>
  <scstep>
   <time name="dav">    1.53    1.53</time>
   <time name="total">    2.37    2.37</time>
   <energy>
    <i name="e_fr_energy">    -21.83568501 </i>
    <i name="e_wo_entrp">    -21.83568501 </i>
    <i name="e_0_energy">    -21.83568501 </i>
   </energy>
  </scstep>
  <scstep>
   <time name="dav">    1.48    1.48</time>
   <time name="total">    2.26    2.26</time>
   <energy>
    <i name="e_fr_energy">    -21.83547918 </i>
    <i name="e_wo_entrp">    -21.83547918 </i>
    <i name="e_0_energy">    -21.83547918 </i>
   </energy>
  </scstep>
  <scstep>
   <time name="dav">    1.51    1.51</time>
   <time name="total">    2.37    2.37</time>
   <energy>
    <i name="e_fr_energy">    -21.83541469 </i>
    <i name="e_wo_entrp">    -21.83541469 </i>
    <i name="e_0_energy">    -21.83541469 </i>
   </energy>
  </scstep>
  <scstep>
   <time name="dav">    1.60    1.60</time>
   <time name="total">    2.34    2.34</time>
   <energy>
    <i name="e_fr_energy">    -21.83559921 </i>
    <i name="e_wo_entrp">    -21.83559921 </i>
    <i name="e_0_energy">    -21.83559921 </i>
   </energy>
  </scstep>
  <scstep>
   <time name="dav">    1.43    1.43</time>
   <time name="total">    2.29    2.29</time>
   <energy>
    <i name="e_fr_energy">    -21.83563016 </i>
    <i name="e_wo_entrp">    -21.83563016 </i>
    <i name="e_0_energy">    -21.83563016 </i>
   </energy>
  </scstep>
  <scstep>
   <time name="dav">    1.43    1.43</time>
   <time name="total">    2.32    2.32</time>
   <energy>
    <i name="e_fr_energy">    -21.83568734 </i>
    <i name="e_wo_entrp">    -21.83568734 </i>
    <i name="e_0_energy">    -21.83568734 </i>
   </energy>
  </scstep>
  <scstep>
   <time name="dav">    1.55    1.55</time>
   <time name="total">    2.41    2.41</time>
   <energy>
    <i name="e_fr_energy">    -21.83569462 </i>
    <i name="e_wo_entrp">    -21.83569462 </i>
    <i name="e_0_energy">    -21.83569462 </i>
   </energy>
  </scstep>
  <scstep>
   <time name="dav">    1.31    1.31</time>
   <time name="total">    2.11    2.11</time>
   <energy>
    <i name="e_fr_energy">    -21.83573067 </i>
    <i name="e_wo_entrp">    -21.83573067 </i>
    <i name="e_0_energy">    -21.83573067 </i>
   </energy>
  </scstep>
  <scstep>
   <time name="dav">    1.23    1.23</time>
   <time name="total">    1.99    1.99</time>
   <energy>
    <i name="e_fr_energy">    -21.83575008 </i>
    <i name="e_wo_entrp">    -21.83575008 </i>
    <i name="e_0_energy">    -21.83575008 </i>
   </energy>
  </scstep>
  <scstep>
   <time name="dav">    1.25    1.25</time>
   <time name="total">    1.97    1.98</time>
   <energy>
    <i name="e_fr_energy">    -21.83575868 </i>
    <i name="e_wo_entrp">    -21.83575868 </i>
    <i name="e_0_energy">    -21.83575868 </i>
   </energy>
  </scstep>
  <scstep>
   <time name="dav">    1.15    1.15</time>
   <time name="total">    1.89    1.89</time>
   <energy>
    <i name="e_fr_energy">    -21.83576108 </i>
    <i name="e_wo_entrp">    -21.83576108 </i>
    <i name="e_0_energy">    -21.83576108 </i>
   </energy>
  </scstep>
  <scstep>
   <time name="dav">    1.04    1.04</time>
   <time name="total">    1.77    1.77</time>
   <energy>
    <i name="e_fr_energy">    -21.83576166 </i>
    <i name="e_wo_entrp">    -21.83576166 </i>
    <i name="e_0_energy">    -21.83576166 </i>
   </energy>
  </scstep>
  <scstep>
   <time name="dav">    0.99    0.99</time>
   <time name="total">    1.72    1.73</time>
   <energy>
    <i name="e_fr_energy">    -21.83576180 </i>
    <i name="e_wo_entrp">    -21.83576180 </i>
    <i name="e_0_energy">    -21.83576180 </i>
   </energy>
  </scstep>
  <scstep>
   <time name="dav">    1.06    1.06</time>
   <time name="total">    1.86    1.86</time>
   <energy>
    <i name="e_fr_energy">    -21.83576183 </i>
    <i name="e_wo_entrp">    -21.83576183 </i>
    <i name="e_0_energy">    -21.83576183 </i>
   </energy>
  </scstep>
  <scstep>
   <time name="dav">    0.80    0.80</time>
   <time name="total">    1.33    1.33</time>
   <energy>
    <i name="alphaZ">     29.72338735 </i>
    <i name="ewald">   4774.92888675 </i>
    <i name="hartreedc">  -6890.32051329 </i>
    <i name="XCdc">     90.96910711 </i>
    <i name="pawpsdc">   2972.10444735 </i>
    <i name="pawaedc">  -2951.12797296 </i>
    <i name="eentropy">     -0.00000000 </i>
    <i name="bandstr">   -464.03441853 </i>
    <i name="atom">   2415.92131437 </i>
    <i name="e_fr_energy">    -21.83576184 </i>
    <i name="e_wo_entrp">    -21.83576184 </i>
    <i name="e_0_energy">    -21.83576184 </i>
   </energy>
  </scstep>
  <structure>
   <crystal>
    <varray name="basis" >
     <v>       3.15456502       0.00000000       0.00000000 </v>
     <v>      -1.57728251       2.73193344       0.00000000 </v>
     <v>       0.00000000       0.00000000      18.46774854 </v>
    </varray>
    <i name="volume">    159.15619590 </i>
    <varray name="rec_basis" >
     <v>       0.31700092       0.18302056       0.00000000 </v>
     <v>       0.00000000       0.36604113       0.00000000 </v>
     <v>       0.00000000       0.00000000       0.05414845 </v>
    </varray>
   </crystal>
   <varray name="positions" >
    <v>       0.00000000       0.00000000       0.50000000 </v>
    <v>       0.66666667       0.33333333       0.58483600 </v>
    <v>       0.66666667       0.33333333       0.41516400 </v>
   </varray>
  </structure>
  <varray name="forces" >
   <v>      -0.00000000       0.00000000      -0.00000000 </v>
   <v>       0.00000000       0.00000000       0.00082994 </v>
   <v>      -0.00000000      -0.00000000      -0.00082994 </v>
  </varray>
  <varray name="stress" >
   <v>      -0.28580224       0.00000000       0.00000000 </v>
   <v>       0.00000000      -0.28580224       0.00000000 </v>
   <v>       0.00000000       0.00000000      -0.27939631 </v>
  </varray>
  <energy>
   <i name="e_fr_energy">    -22.79459344 </i>
   <i name="e_wo_entrp">    -22.79459344 </i>
   <i name="e_0_energy">    -22.79459344 </i>
  </energy>
  <time name="totalsc">   59.04   59.07</time>
  <eigenvalues>
   <array>
    <dimension dim="1">band</dimension>
    <dimension dim="2">kpoint</dimension>
    <dimension dim="3">spin</dimension>
    <field>eigene</field>
    <field>occ</field>
    <set>
     <set comment="spin 1">
      <set comment="kpoint 1">
       <r>  -62.4566    1.0000 </r>
       <r>  -36.6161    1.0000 </r>
       <r>  -36.3782    1.0000 </r>
       <r>  -36.3782    1.0000 </r>
       <r>  -15.7775    1.0000 </r>
       <r>  -14.4709    1.0000 </r>
       <r>   -7.3081    1.0000 </r>
       <r>   -4.1929    1.0000 </r>
       <r>   -4.1929    1.0000 </r>
       <r>   -3.4697    1.0000 </r>
       <r>   -3.0692    1.0000 </r>
       <r>   -3.0692    1.0000 </r>
       <r>   -1.6998    1.0000 </r>
       <r>    1.2200    0.0000 </r>
       <r>    1.2200    0.0000 </r>
       <r>    1.4569    0.0000 </r>
       <r>    1.4569    0.0000 </r>
      </set>
      <set comment="kpoint 2">
       <r>  -62.4421    1.0000 </r>
       <r>  -36.5879    1.0000 </r>
       <r>  -36.5210    1.0000 </r>
       <r>  -36.4108    1.0000 </r>
       <r>  -15.2027    1.0000 </r>
       <r>  -14.2320    1.0000 </r>
       <r>   -6.7551    1.0000 </r>
       <r>   -5.1890    1.0000 </r>
       <r>   -4.8417    1.0000 </r>
       <r>   -3.8141    1.0000 </r>
       <r>   -3.6087    1.0000 </r>
       <r>   -2.7918    1.0000 </r>
       <r>   -2.1141    1.0000 </r>
       <r>    0.5856    0.0000 </r>
       <r>    0.9459    0.0000 </r>
       <r>    1.1175    0.0000 </r>
       <r>    1.9983    0.0000 </r>
      </set>
      <set comment="kpoint 3">
       <r>  -62.4185    1.0000 </r>
       <r>  -36.7456    1.0000 </r>
       <r>  -36.5418    1.0000 </r>
       <r>  -36.4631    1.0000 </r>
       <r>  -14.0612    1.0000 </r>
       <r>  -13.7736    1.0000 </r>
       <r>   -7.2300    1.0000 </r>
       <r>   -6.2452    1.0000 </r>
       <r>   -5.6211    1.0000 </r>
       <r>   -4.6547    1.0000 </r>
       <r>   -3.4626    1.0000 </r>
       <r>   -2.6653    1.0000 </r>
       <r>   -2.4895    1.0000 </r>
       <r>    0.6759    0.0000 </r>
       <r>    0.9893    0.0000 </r>
       <r>    2.1443    0.0000 </r>
       <r>    2.6883    0.0000 </r>
      </set>
      <set comment="kpoint 4">
       <r>  -62.4230    1.0000 </r>
       <r>  -36.6672    1.0000 </r>
       <r>  -36.5506    1.0000 </r>
       <r>  -36.4905    1.0000 </r>
       <r>  -14.3180    1.0000 </r>
       <r>  -13.8614    1.0000 </r>
       <r>   -6.7044    1.0000 </r>
       <r>   -5.8663    1.0000 </r>
       <r>   -5.3447    1.0000 </r>
       <r>   -4.9873    1.0000 </r>
       <r>   -3.8574    1.0000 </r>
       <r>   -2.8698    1.0000 </r>
       <r>   -2.3870    1.0000 </r>
       <r>    0.3981    0.0000 </r>
       <r>    1.0205    0.0000 </r>
       <r>    1.3101    0.0000 </r>
       <r>    2.8553    0.0000 </r>
      </set>
      <set comment="kpoint 5">
       <r>  -62.4112    1.0000 </r>
       <r>  -36.7366    1.0000 </r>
       <r>  -36.5592    1.0000 </r>
       <r>  -36.5275    1.0000 </r>
       <r>  -13.6511    1.0000 </r>
       <r>  -13.5777    1.0000 </r>
       <r>   -6.9046    1.0000 </r>
       <r>   -6.8664    1.0000 </r>
       <r>   -5.5679    1.0000 </r>
       <r>   -4.7413    1.0000 </r>
       <r>   -4.3472    1.0000 </r>
       <r>   -3.5996    1.0000 </r>
       <r>   -1.8575    1.0000 </r>
       <r>    0.5111    0.0000 </r>
       <r>    1.6478    0.0000 </r>
       <r>    1.7212    0.0000 </r>
       <r>    3.0389    0.0000 </r>
      </set>
     </set>
    </set>
   </array>
  </eigenvalues>
  <separator name="orbital magnetization" >
   <v name="MAGDIPOLOUT">      0.00000000      0.00000000      0.00000000</v>
  </separator>
  <dos>
   <i name="efermi">     -1.46691891 </i>
   <total>
    <array>
     <dimension dim="1">gridpoints</dimension>
     <dimension dim="2">spin</dimension>
     <field>energy</field>
     <field>total</field>
     <field>integrated</field>
     <set>
      <set comment="spin 1">
       <r>   -65.7313     0.0000     0.0000 </r>
       <r>   -65.6953     0.0000     0.0000 </r>
       <r>   -65.6593     0.0000     0.0000 </r>
       <r>   -65.6233     0.0000     0.0000 </r>
       <r>   -65.5873     0.0000     0.0000 </r>
       <r>   -65.5512     0.0000     0.0000 </r>
       <r>   -65.5152     0.0000     0.0000 </r>
       <r>   -65.4792     0.0000     0.0000 </r>
       <r>   -65.4432     0.0000     0.0000 </r>
       <r>   -65.4071     0.0000     0.0000 </r>
       <r>   -65.3711     0.0000     0.0000 </r>
       <r>   -65.3351     0.0000     0.0000 </r>
       <r>   -65.2991     0.0000     0.0000 </r>
       <r>   -65.2631     0.0000     0.0000 </r>
       <r>   -65.2270     0.0000     0.0000 </r>
       <r>   -65.1910     0.0000     0.0000 </r>
       <r>   -65.1550     0.0000     0.0000 </r>
       <r>   -65.1190     0.0000     0.0000 </r>
       <r>   -65.0829     0.0000     0.0000 </r>
       <r>   -65.0469     0.0000     0.0000 </r>
       <r>   -65.0109     0.0000     0.0000 </r>
       <r>   -64.9749     0.0000     0.0000 </r>
       <r>   -64.9389     0.0000     0.0000 </r>
       <r>   -64.9028     0.0000     0.0000 </r>
       <r>   -64.8668     0.0000     0.0000 </r>
       <r>   -64.8308     0.0000     0.0000 </r>
       <r>   -64.7948     0.0000     0.0000 </r>
       <r>   -64.7587     0.0000     0.0000 </r>
       <r>   -64.7227     0.0000     0.0000 </r>
       <r>   -64.6867     0.0000     0.0000 </r>
       <r>   -64.6507     0.0000     0.0000 </r>
       <r>   -64.6147     0.0000     0.0000 </r>
       <r>   -64.5786     0.0000     0.0000 </r>
       <r>   -64.5426     0.0000     0.0000 </r>
       <r>   -64.5066     0.0000     0.0000 </r>
       <r>   -64.4706     0.0000     0.0000 </r>
       <r>   -64.4345     0.0000     0.0000 </r>
       <r>   -64.3985     0.0000     0.0000 </r>
       <r>   -64.3625     0.0000     0.0000 </r>
       <r>   -64.3265     0.0000     0.0000 </r>
       <r>   -64.2904     0.0000     0.0000 </r>
       <r>   -64.2544     0.0000     0.0000 </r>
       <r>   -64.2184     0.0000     0.0000 </r>
       <r>   -64.1824     0.0000     0.0000 </r>
       <r>   -64.1464     0.0000     0.0000 </r>
       <r>   -64.1103     0.0000     0.0000 </r>
       <r>   -64.0743     0.0000     0.0000 </r>
       <r>   -64.0383     0.0000     0.0000 </r>
       <r>   -64.0023     0.0000     0.0000 </r>
       <r>   -63.9662     0.0000     0.0000 </r>
       <r>   -63.9302     0.0000     0.0000 </r>
       <r>   -63.8942     0.0000     0.0000 </r>
       <r>   -63.8582     0.0000     0.0000 </r>
       <r>   -63.8222     0.0000     0.0000 </r>
       <r>   -63.7861     0.0000     0.0000 </r>
       <r>   -63.7501     0.0000     0.0000 </r>
       <r>   -63.7141     0.0000     0.0000 </r>
       <r>   -63.6781     0.0000     0.0000 </r>
       <r>   -63.6420     0.0000     0.0000 </r>
       <r>   -63.6060     0.0000     0.0000 </r>
       <r>   -63.5700     0.0000     0.0000 </r>
       <r>   -63.5340     0.0000     0.0000 </r>
       <r>   -63.4980     0.0000     0.0000 </r>
       <r>   -63.4619     0.0000     0.0000 </r>
       <r>   -63.4259     0.0000     0.0000 </r>
       <r>   -63.3899     0.0000     0.0000 </r>
       <r>   -63.3539     0.0000     0.0000 </r>
       <r>   -63.3178     0.0000     0.0000 </r>
       <r>   -63.2818     0.0000     0.0000 </r>
       <r>   -63.2458     0.0000     0.0000 </r>
       <r>   -63.2098     0.0000     0.0000 </r>
       <r>   -63.1738     0.0000     0.0000 </r>
       <r>   -63.1377     0.0000     0.0000 </r>
       <r>   -63.1017     0.0000     0.0000 </r>
       <r>   -63.0657     0.0000     0.0000 </r>
       <r>   -63.0297     0.0000     0.0000 </r>
       <r>   -62.9936     0.0000     0.0000 </r>
       <r>   -62.9576     0.0000     0.0000 </r>
       <r>   -62.9216     0.0000     0.0000 </r>
       <r>   -62.8856     0.0000     0.0000 </r>
       <r>   -62.8495     0.0000     0.0000 </r>
       <r>   -62.8135     0.0000     0.0000 </r>
       <r>   -62.7775     0.0000     0.0000 </r>
       <r>   -62.7415     0.0000     0.0000 </r>
       <r>   -62.7055     0.0000     0.0000 </r>
       <r>   -62.6694     0.0000     0.0000 </r>
       <r>   -62.6334     0.0000     0.0000 </r>
       <r>   -62.5974     0.0002     0.0000 </r>
       <r>   -62.5614     0.0092     0.0003 </r>
       <r>   -62.5253     0.2216     0.0083 </r>
       <r>   -62.4893     2.2559     0.0896 </r>
       <r>   -62.4533    10.0340     0.4510 </r>
       <r>   -62.4173    19.6226     1.1579 </r>
       <r>   -62.3813    16.5926     1.7556 </r>
       <r>   -62.3452     5.8874     1.9677 </r>
       <r>   -62.3092     0.8482     1.9982 </r>
       <r>   -62.2732     0.0482     2.0000 </r>
       <r>   -62.2372     0.0011     2.0000 </r>
       <r>   -62.2011     0.0000     2.0000 </r>
       <r>   -62.1651     0.0000     2.0000 </r>
       <r>   -62.1291     0.0000     2.0000 </r>
       <r>   -62.0931     0.0000     2.0000 </r>
       <r>   -62.0571     0.0000     2.0000 </r>
       <r>   -62.0210     0.0000     2.0000 </r>
       <r>   -61.9850     0.0000     2.0000 </r>
       <r>   -61.9490     0.0000     2.0000 </r>
       <r>   -61.9130     0.0000     2.0000 </r>
       <r>   -61.8769     0.0000     2.0000 </r>
       <r>   -61.8409     0.0000     2.0000 </r>
       <r>   -61.8049     0.0000     2.0000 </r>
       <r>   -61.7689     0.0000     2.0000 </r>
       <r>   -61.7329     0.0000     2.0000 </r>
       <r>   -61.6968     0.0000     2.0000 </r>
       <r>   -61.6608     0.0000     2.0000 </r>
       <r>   -61.6248     0.0000     2.0000 </r>
       <r>   -61.5888     0.0000     2.0000 </r>
       <r>   -61.5527     0.0000     2.0000 </r>
       <r>   -61.5167     0.0000     2.0000 </r>
       <r>   -61.4807     0.0000     2.0000 </r>
       <r>   -61.4447     0.0000     2.0000 </r>
       <r>   -61.4086     0.0000     2.0000 </r>
       <r>   -61.3726     0.0000     2.0000 </r>
       <r>   -61.3366     0.0000     2.0000 </r>
       <r>   -61.3006     0.0000     2.0000 </r>
       <r>   -61.2646     0.0000     2.0000 </r>
       <r>   -61.2285     0.0000     2.0000 </r>
       <r>   -61.1925     0.0000     2.0000 </r>
       <r>   -61.1565     0.0000     2.0000 </r>
       <r>   -61.1205     0.0000     2.0000 </r>
       <r>   -61.0844     0.0000     2.0000 </r>
       <r>   -61.0484     0.0000     2.0000 </r>
       <r>   -61.0124     0.0000     2.0000 </r>
       <r>   -60.9764     0.0000     2.0000 </r>
       <r>   -60.9404     0.0000     2.0000 </r>
       <r>   -60.9043     0.0000     2.0000 </r>
       <r>   -60.8683     0.0000     2.0000 </r>
       <r>   -60.8323     0.0000     2.0000 </r>
       <r>   -60.7963     0.0000     2.0000 </r>
       <r>   -60.7602     0.0000     2.0000 </r>
       <r>   -60.7242     0.0000     2.0000 </r>
       <r>   -60.6882     0.0000     2.0000 </r>
       <r>   -60.6522     0.0000     2.0000 </r>
       <r>   -60.6162     0.0000     2.0000 </r>
       <r>   -60.5801     0.0000     2.0000 </r>
       <r>   -60.5441     0.0000     2.0000 </r>
       <r>   -60.5081     0.0000     2.0000 </r>
       <r>   -60.4721     0.0000     2.0000 </r>
       <r>   -60.4360     0.0000     2.0000 </r>
       <r>   -60.4000     0.0000     2.0000 </r>
       <r>   -60.3640     0.0000     2.0000 </r>
       <r>   -60.3280     0.0000     2.0000 </r>
       <r>   -60.2920     0.0000     2.0000 </r>
       <r>   -60.2559     0.0000     2.0000 </r>
       <r>   -60.2199     0.0000     2.0000 </r>
       <r>   -60.1839     0.0000     2.0000 </r>
       <r>   -60.1479     0.0000     2.0000 </r>
       <r>   -60.1118     0.0000     2.0000 </r>
       <r>   -60.0758     0.0000     2.0000 </r>
       <r>   -60.0398     0.0000     2.0000 </r>
       <r>   -60.0038     0.0000     2.0000 </r>
       <r>   -59.9677     0.0000     2.0000 </r>
       <r>   -59.9317     0.0000     2.0000 </r>
       <r>   -59.8957     0.0000     2.0000 </r>
       <r>   -59.8597     0.0000     2.0000 </r>
       <r>   -59.8237     0.0000     2.0000 </r>
       <r>   -59.7876     0.0000     2.0000 </r>
       <r>   -59.7516     0.0000     2.0000 </r>
       <r>   -59.7156     0.0000     2.0000 </r>
       <r>   -59.6796     0.0000     2.0000 </r>
       <r>   -59.6435     0.0000     2.0000 </r>
       <r>   -59.6075     0.0000     2.0000 </r>
       <r>   -59.5715     0.0000     2.0000 </r>
       <r>   -59.5355     0.0000     2.0000 </r>
       <r>   -59.4995     0.0000     2.0000 </r>
       <r>   -59.4634     0.0000     2.0000 </r>
       <r>   -59.4274     0.0000     2.0000 </r>
       <r>   -59.3914     0.0000     2.0000 </r>
       <r>   -59.3554     0.0000     2.0000 </r>
       <r>   -59.3193     0.0000     2.0000 </r>
       <r>   -59.2833     0.0000     2.0000 </r>
       <r>   -59.2473     0.0000     2.0000 </r>
       <r>   -59.2113     0.0000     2.0000 </r>
       <r>   -59.1753     0.0000     2.0000 </r>
       <r>   -59.1392     0.0000     2.0000 </r>
       <r>   -59.1032     0.0000     2.0000 </r>
       <r>   -59.0672     0.0000     2.0000 </r>
       <r>   -59.0312     0.0000     2.0000 </r>
       <r>   -58.9951     0.0000     2.0000 </r>
       <r>   -58.9591     0.0000     2.0000 </r>
       <r>   -58.9231     0.0000     2.0000 </r>
       <r>   -58.8871     0.0000     2.0000 </r>
       <r>   -58.8511     0.0000     2.0000 </r>
       <r>   -58.8150     0.0000     2.0000 </r>
       <r>   -58.7790     0.0000     2.0000 </r>
       <r>   -58.7430     0.0000     2.0000 </r>
       <r>   -58.7070     0.0000     2.0000 </r>
       <r>   -58.6709     0.0000     2.0000 </r>
       <r>   -58.6349     0.0000     2.0000 </r>
       <r>   -58.5989     0.0000     2.0000 </r>
       <r>   -58.5629     0.0000     2.0000 </r>
       <r>   -58.5268     0.0000     2.0000 </r>
       <r>   -58.4908     0.0000     2.0000 </r>
       <r>   -58.4548     0.0000     2.0000 </r>
       <r>   -58.4188     0.0000     2.0000 </r>
       <r>   -58.3828     0.0000     2.0000 </r>
       <r>   -58.3467     0.0000     2.0000 </r>
       <r>   -58.3107     0.0000     2.0000 </r>
       <r>   -58.2747     0.0000     2.0000 </r>
       <r>   -58.2387     0.0000     2.0000 </r>
       <r>   -58.2026     0.0000     2.0000 </r>
       <r>   -58.1666     0.0000     2.0000 </r>
       <r>   -58.1306     0.0000     2.0000 </r>
       <r>   -58.0946     0.0000     2.0000 </r>
       <r>   -58.0586     0.0000     2.0000 </r>
       <r>   -58.0225     0.0000     2.0000 </r>
       <r>   -57.9865     0.0000     2.0000 </r>
       <r>   -57.9505     0.0000     2.0000 </r>
       <r>   -57.9145     0.0000     2.0000 </r>
       <r>   -57.8784     0.0000     2.0000 </r>
       <r>   -57.8424     0.0000     2.0000 </r>
       <r>   -57.8064     0.0000     2.0000 </r>
       <r>   -57.7704     0.0000     2.0000 </r>
       <r>   -57.7344     0.0000     2.0000 </r>
       <r>   -57.6983     0.0000     2.0000 </r>
       <r>   -57.6623     0.0000     2.0000 </r>
       <r>   -57.6263     0.0000     2.0000 </r>
       <r>   -57.5903     0.0000     2.0000 </r>
       <r>   -57.5542     0.0000     2.0000 </r>
       <r>   -57.5182     0.0000     2.0000 </r>
       <r>   -57.4822     0.0000     2.0000 </r>
       <r>   -57.4462     0.0000     2.0000 </r>
       <r>   -57.4102     0.0000     2.0000 </r>
       <r>   -57.3741     0.0000     2.0000 </r>
       <r>   -57.3381     0.0000     2.0000 </r>
       <r>   -57.3021     0.0000     2.0000 </r>
       <r>   -57.2661     0.0000     2.0000 </r>
       <r>   -57.2300     0.0000     2.0000 </r>
       <r>   -57.1940     0.0000     2.0000 </r>
       <r>   -57.1580     0.0000     2.0000 </r>
       <r>   -57.1220     0.0000     2.0000 </r>
       <r>   -57.0859     0.0000     2.0000 </r>
       <r>   -57.0499     0.0000     2.0000 </r>
       <r>   -57.0139     0.0000     2.0000 </r>
       <r>   -56.9779     0.0000     2.0000 </r>
       <r>   -56.9419     0.0000     2.0000 </r>
       <r>   -56.9058     0.0000     2.0000 </r>
       <r>   -56.8698     0.0000     2.0000 </r>
       <r>   -56.8338     0.0000     2.0000 </r>
       <r>   -56.7978     0.0000     2.0000 </r>
       <r>   -56.7617     0.0000     2.0000 </r>
       <r>   -56.7257     0.0000     2.0000 </r>
       <r>   -56.6897     0.0000     2.0000 </r>
       <r>   -56.6537     0.0000     2.0000 </r>
       <r>   -56.6177     0.0000     2.0000 </r>
       <r>   -56.5816     0.0000     2.0000 </r>
       <r>   -56.5456     0.0000     2.0000 </r>
       <r>   -56.5096     0.0000     2.0000 </r>
       <r>   -56.4736     0.0000     2.0000 </r>
       <r>   -56.4375     0.0000     2.0000 </r>
       <r>   -56.4015     0.0000     2.0000 </r>
       <r>   -56.3655     0.0000     2.0000 </r>
       <r>   -56.3295     0.0000     2.0000 </r>
       <r>   -56.2935     0.0000     2.0000 </r>
       <r>   -56.2574     0.0000     2.0000 </r>
       <r>   -56.2214     0.0000     2.0000 </r>
       <r>   -56.1854     0.0000     2.0000 </r>
       <r>   -56.1494     0.0000     2.0000 </r>
       <r>   -56.1133     0.0000     2.0000 </r>
       <r>   -56.0773     0.0000     2.0000 </r>
       <r>   -56.0413     0.0000     2.0000 </r>
       <r>   -56.0053     0.0000     2.0000 </r>
       <r>   -55.9693     0.0000     2.0000 </r>
       <r>   -55.9332     0.0000     2.0000 </r>
       <r>   -55.8972     0.0000     2.0000 </r>
       <r>   -55.8612     0.0000     2.0000 </r>
       <r>   -55.8252     0.0000     2.0000 </r>
       <r>   -55.7891     0.0000     2.0000 </r>
       <r>   -55.7531     0.0000     2.0000 </r>
       <r>   -55.7171     0.0000     2.0000 </r>
       <r>   -55.6811     0.0000     2.0000 </r>
       <r>   -55.6450     0.0000     2.0000 </r>
       <r>   -55.6090     0.0000     2.0000 </r>
       <r>   -55.5730     0.0000     2.0000 </r>
       <r>   -55.5370     0.0000     2.0000 </r>
       <r>   -55.5010     0.0000     2.0000 </r>
       <r>   -55.4649     0.0000     2.0000 </r>
       <r>   -55.4289     0.0000     2.0000 </r>
       <r>   -55.3929     0.0000     2.0000 </r>
       <r>   -55.3569     0.0000     2.0000 </r>
       <r>   -55.3208     0.0000     2.0000 </r>
       <r>   -55.2848     0.0000     2.0000 </r>
       <r>   -55.2488     0.0000     2.0000 </r>
       <r>   -55.2128     0.0000     2.0000 </r>
       <r>   -55.1768     0.0000     2.0000 </r>
       <r>   -55.1407     0.0000     2.0000 </r>
       <r>   -55.1047     0.0000     2.0000 </r>
       <r>   -55.0687     0.0000     2.0000 </r>
       <r>   -55.0327     0.0000     2.0000 </r>
       <r>   -54.9966     0.0000     2.0000 </r>
       <r>   -54.9606     0.0000     2.0000 </r>
       <r>   -54.9246     0.0000     2.0000 </r>
       <r>   -54.8886     0.0000     2.0000 </r>
       <r>   -54.8526     0.0000     2.0000 </r>
       <r>   -54.8165     0.0000     2.0000 </r>
       <r>   -54.7805     0.0000     2.0000 </r>
       <r>   -54.7445     0.0000     2.0000 </r>
       <r>   -54.7085     0.0000     2.0000 </r>
       <r>   -54.6724     0.0000     2.0000 </r>
       <r>   -54.6364     0.0000     2.0000 </r>
       <r>   -54.6004     0.0000     2.0000 </r>
       <r>   -54.5644     0.0000     2.0000 </r>
       <r>   -54.5283     0.0000     2.0000 </r>
       <r>   -54.4923     0.0000     2.0000 </r>
       <r>   -54.4563     0.0000     2.0000 </r>
       <r>   -54.4203     0.0000     2.0000 </r>
       <r>   -54.3843     0.0000     2.0000 </r>
       <r>   -54.3482     0.0000     2.0000 </r>
       <r>   -54.3122     0.0000     2.0000 </r>
       <r>   -54.2762     0.0000     2.0000 </r>
       <r>   -54.2402     0.0000     2.0000 </r>
       <r>   -54.2041     0.0000     2.0000 </r>
       <r>   -54.1681     0.0000     2.0000 </r>
       <r>   -54.1321     0.0000     2.0000 </r>
       <r>   -54.0961     0.0000     2.0000 </r>
       <r>   -54.0601     0.0000     2.0000 </r>
       <r>   -54.0240     0.0000     2.0000 </r>
       <r>   -53.9880     0.0000     2.0000 </r>
       <r>   -53.9520     0.0000     2.0000 </r>
       <r>   -53.9160     0.0000     2.0000 </r>
       <r>   -53.8799     0.0000     2.0000 </r>
       <r>   -53.8439     0.0000     2.0000 </r>
       <r>   -53.8079     0.0000     2.0000 </r>
       <r>   -53.7719     0.0000     2.0000 </r>
       <r>   -53.7359     0.0000     2.0000 </r>
       <r>   -53.6998     0.0000     2.0000 </r>
       <r>   -53.6638     0.0000     2.0000 </r>
       <r>   -53.6278     0.0000     2.0000 </r>
       <r>   -53.5918     0.0000     2.0000 </r>
       <r>   -53.5557     0.0000     2.0000 </r>
       <r>   -53.5197     0.0000     2.0000 </r>
       <r>   -53.4837     0.0000     2.0000 </r>
       <r>   -53.4477     0.0000     2.0000 </r>
       <r>   -53.4117     0.0000     2.0000 </r>
       <r>   -53.3756     0.0000     2.0000 </r>
       <r>   -53.3396     0.0000     2.0000 </r>
       <r>   -53.3036     0.0000     2.0000 </r>
       <r>   -53.2676     0.0000     2.0000 </r>
       <r>   -53.2315     0.0000     2.0000 </r>
       <r>   -53.1955     0.0000     2.0000 </r>
       <r>   -53.1595     0.0000     2.0000 </r>
       <r>   -53.1235     0.0000     2.0000 </r>
       <r>   -53.0874     0.0000     2.0000 </r>
       <r>   -53.0514     0.0000     2.0000 </r>
       <r>   -53.0154     0.0000     2.0000 </r>
       <r>   -52.9794     0.0000     2.0000 </r>
       <r>   -52.9434     0.0000     2.0000 </r>
       <r>   -52.9073     0.0000     2.0000 </r>
       <r>   -52.8713     0.0000     2.0000 </r>
       <r>   -52.8353     0.0000     2.0000 </r>
       <r>   -52.7993     0.0000     2.0000 </r>
       <r>   -52.7632     0.0000     2.0000 </r>
       <r>   -52.7272     0.0000     2.0000 </r>
       <r>   -52.6912     0.0000     2.0000 </r>
       <r>   -52.6552     0.0000     2.0000 </r>
       <r>   -52.6192     0.0000     2.0000 </r>
       <r>   -52.5831     0.0000     2.0000 </r>
       <r>   -52.5471     0.0000     2.0000 </r>
       <r>   -52.5111     0.0000     2.0000 </r>
       <r>   -52.4751     0.0000     2.0000 </r>
       <r>   -52.4390     0.0000     2.0000 </r>
       <r>   -52.4030     0.0000     2.0000 </r>
       <r>   -52.3670     0.0000     2.0000 </r>
       <r>   -52.3310     0.0000     2.0000 </r>
       <r>   -52.2950     0.0000     2.0000 </r>
       <r>   -52.2589     0.0000     2.0000 </r>
       <r>   -52.2229     0.0000     2.0000 </r>
       <r>   -52.1869     0.0000     2.0000 </r>
       <r>   -52.1509     0.0000     2.0000 </r>
       <r>   -52.1148     0.0000     2.0000 </r>
       <r>   -52.0788     0.0000     2.0000 </r>
       <r>   -52.0428     0.0000     2.0000 </r>
       <r>   -52.0068     0.0000     2.0000 </r>
       <r>   -51.9708     0.0000     2.0000 </r>
       <r>   -51.9347     0.0000     2.0000 </r>
       <r>   -51.8987     0.0000     2.0000 </r>
       <r>   -51.8627     0.0000     2.0000 </r>
       <r>   -51.8267     0.0000     2.0000 </r>
       <r>   -51.7906     0.0000     2.0000 </r>
       <r>   -51.7546     0.0000     2.0000 </r>
       <r>   -51.7186     0.0000     2.0000 </r>
       <r>   -51.6826     0.0000     2.0000 </r>
       <r>   -51.6465     0.0000     2.0000 </r>
       <r>   -51.6105     0.0000     2.0000 </r>
       <r>   -51.5745     0.0000     2.0000 </r>
       <r>   -51.5385     0.0000     2.0000 </r>
       <r>   -51.5025     0.0000     2.0000 </r>
       <r>   -51.4664     0.0000     2.0000 </r>
       <r>   -51.4304     0.0000     2.0000 </r>
       <r>   -51.3944     0.0000     2.0000 </r>
       <r>   -51.3584     0.0000     2.0000 </r>
       <r>   -51.3223     0.0000     2.0000 </r>
       <r>   -51.2863     0.0000     2.0000 </r>
       <r>   -51.2503     0.0000     2.0000 </r>
       <r>   -51.2143     0.0000     2.0000 </r>
       <r>   -51.1783     0.0000     2.0000 </r>
       <r>   -51.1422     0.0000     2.0000 </r>
       <r>   -51.1062     0.0000     2.0000 </r>
       <r>   -51.0702     0.0000     2.0000 </r>
       <r>   -51.0342     0.0000     2.0000 </r>
       <r>   -50.9981     0.0000     2.0000 </r>
       <r>   -50.9621     0.0000     2.0000 </r>
       <r>   -50.9261     0.0000     2.0000 </r>
       <r>   -50.8901     0.0000     2.0000 </r>
       <r>   -50.8541     0.0000     2.0000 </r>
       <r>   -50.8180     0.0000     2.0000 </r>
       <r>   -50.7820     0.0000     2.0000 </r>
       <r>   -50.7460     0.0000     2.0000 </r>
       <r>   -50.7100     0.0000     2.0000 </r>
       <r>   -50.6739     0.0000     2.0000 </r>
       <r>   -50.6379     0.0000     2.0000 </r>
       <r>   -50.6019     0.0000     2.0000 </r>
       <r>   -50.5659     0.0000     2.0000 </r>
       <r>   -50.5299     0.0000     2.0000 </r>
       <r>   -50.4938     0.0000     2.0000 </r>
       <r>   -50.4578     0.0000     2.0000 </r>
       <r>   -50.4218     0.0000     2.0000 </r>
       <r>   -50.3858     0.0000     2.0000 </r>
       <r>   -50.3497     0.0000     2.0000 </r>
       <r>   -50.3137     0.0000     2.0000 </r>
       <r>   -50.2777     0.0000     2.0000 </r>
       <r>   -50.2417     0.0000     2.0000 </r>
       <r>   -50.2056     0.0000     2.0000 </r>
       <r>   -50.1696     0.0000     2.0000 </r>
       <r>   -50.1336     0.0000     2.0000 </r>
       <r>   -50.0976     0.0000     2.0000 </r>
       <r>   -50.0616     0.0000     2.0000 </r>
       <r>   -50.0255     0.0000     2.0000 </r>
       <r>   -49.9895     0.0000     2.0000 </r>
       <r>   -49.9535     0.0000     2.0000 </r>
       <r>   -49.9175     0.0000     2.0000 </r>
       <r>   -49.8814     0.0000     2.0000 </r>
       <r>   -49.8454     0.0000     2.0000 </r>
       <r>   -49.8094     0.0000     2.0000 </r>
       <r>   -49.7734     0.0000     2.0000 </r>
       <r>   -49.7374     0.0000     2.0000 </r>
       <r>   -49.7013     0.0000     2.0000 </r>
       <r>   -49.6653     0.0000     2.0000 </r>
       <r>   -49.6293     0.0000     2.0000 </r>
       <r>   -49.5933     0.0000     2.0000 </r>
       <r>   -49.5572     0.0000     2.0000 </r>
       <r>   -49.5212     0.0000     2.0000 </r>
       <r>   -49.4852     0.0000     2.0000 </r>
       <r>   -49.4492     0.0000     2.0000 </r>
       <r>   -49.4132     0.0000     2.0000 </r>
       <r>   -49.3771     0.0000     2.0000 </r>
       <r>   -49.3411     0.0000     2.0000 </r>
       <r>   -49.3051     0.0000     2.0000 </r>
       <r>   -49.2691     0.0000     2.0000 </r>
       <r>   -49.2330     0.0000     2.0000 </r>
       <r>   -49.1970     0.0000     2.0000 </r>
       <r>   -49.1610     0.0000     2.0000 </r>
       <r>   -49.1250     0.0000     2.0000 </r>
       <r>   -49.0890     0.0000     2.0000 </r>
       <r>   -49.0529     0.0000     2.0000 </r>
       <r>   -49.0169     0.0000     2.0000 </r>
       <r>   -48.9809     0.0000     2.0000 </r>
       <r>   -48.9449     0.0000     2.0000 </r>
       <r>   -48.9088     0.0000     2.0000 </r>
       <r>   -48.8728     0.0000     2.0000 </r>
       <r>   -48.8368     0.0000     2.0000 </r>
       <r>   -48.8008     0.0000     2.0000 </r>
       <r>   -48.7647     0.0000     2.0000 </r>
       <r>   -48.7287     0.0000     2.0000 </r>
       <r>   -48.6927     0.0000     2.0000 </r>
       <r>   -48.6567     0.0000     2.0000 </r>
       <r>   -48.6207     0.0000     2.0000 </r>
       <r>   -48.5846     0.0000     2.0000 </r>
       <r>   -48.5486     0.0000     2.0000 </r>
       <r>   -48.5126     0.0000     2.0000 </r>
       <r>   -48.4766     0.0000     2.0000 </r>
       <r>   -48.4405     0.0000     2.0000 </r>
       <r>   -48.4045     0.0000     2.0000 </r>
       <r>   -48.3685     0.0000     2.0000 </r>
       <r>   -48.3325     0.0000     2.0000 </r>
       <r>   -48.2965     0.0000     2.0000 </r>
       <r>   -48.2604     0.0000     2.0000 </r>
       <r>   -48.2244     0.0000     2.0000 </r>
       <r>   -48.1884     0.0000     2.0000 </r>
       <r>   -48.1524     0.0000     2.0000 </r>
       <r>   -48.1163     0.0000     2.0000 </r>
       <r>   -48.0803     0.0000     2.0000 </r>
       <r>   -48.0443     0.0000     2.0000 </r>
       <r>   -48.0083     0.0000     2.0000 </r>
       <r>   -47.9723     0.0000     2.0000 </r>
       <r>   -47.9362     0.0000     2.0000 </r>
       <r>   -47.9002     0.0000     2.0000 </r>
       <r>   -47.8642     0.0000     2.0000 </r>
       <r>   -47.8282     0.0000     2.0000 </r>
       <r>   -47.7921     0.0000     2.0000 </r>
       <r>   -47.7561     0.0000     2.0000 </r>
       <r>   -47.7201     0.0000     2.0000 </r>
       <r>   -47.6841     0.0000     2.0000 </r>
       <r>   -47.6481     0.0000     2.0000 </r>
       <r>   -47.6120     0.0000     2.0000 </r>
       <r>   -47.5760     0.0000     2.0000 </r>
       <r>   -47.5400     0.0000     2.0000 </r>
       <r>   -47.5040     0.0000     2.0000 </r>
       <r>   -47.4679     0.0000     2.0000 </r>
       <r>   -47.4319     0.0000     2.0000 </r>
       <r>   -47.3959     0.0000     2.0000 </r>
       <r>   -47.3599     0.0000     2.0000 </r>
       <r>   -47.3238     0.0000     2.0000 </r>
       <r>   -47.2878     0.0000     2.0000 </r>
       <r>   -47.2518     0.0000     2.0000 </r>
       <r>   -47.2158     0.0000     2.0000 </r>
       <r>   -47.1798     0.0000     2.0000 </r>
       <r>   -47.1437     0.0000     2.0000 </r>
       <r>   -47.1077     0.0000     2.0000 </r>
       <r>   -47.0717     0.0000     2.0000 </r>
       <r>   -47.0357     0.0000     2.0000 </r>
       <r>   -46.9996     0.0000     2.0000 </r>
       <r>   -46.9636     0.0000     2.0000 </r>
       <r>   -46.9276     0.0000     2.0000 </r>
       <r>   -46.8916     0.0000     2.0000 </r>
       <r>   -46.8556     0.0000     2.0000 </r>
       <r>   -46.8195     0.0000     2.0000 </r>
       <r>   -46.7835     0.0000     2.0000 </r>
       <r>   -46.7475     0.0000     2.0000 </r>
       <r>   -46.7115     0.0000     2.0000 </r>
       <r>   -46.6754     0.0000     2.0000 </r>
       <r>   -46.6394     0.0000     2.0000 </r>
       <r>   -46.6034     0.0000     2.0000 </r>
       <r>   -46.5674     0.0000     2.0000 </r>
       <r>   -46.5314     0.0000     2.0000 </r>
       <r>   -46.4953     0.0000     2.0000 </r>
       <r>   -46.4593     0.0000     2.0000 </r>
       <r>   -46.4233     0.0000     2.0000 </r>
       <r>   -46.3873     0.0000     2.0000 </r>
       <r>   -46.3512     0.0000     2.0000 </r>
       <r>   -46.3152     0.0000     2.0000 </r>
       <r>   -46.2792     0.0000     2.0000 </r>
       <r>   -46.2432     0.0000     2.0000 </r>
       <r>   -46.2072     0.0000     2.0000 </r>
       <r>   -46.1711     0.0000     2.0000 </r>
       <r>   -46.1351     0.0000     2.0000 </r>
       <r>   -46.0991     0.0000     2.0000 </r>
       <r>   -46.0631     0.0000     2.0000 </r>
       <r>   -46.0270     0.0000     2.0000 </r>
       <r>   -45.9910     0.0000     2.0000 </r>
       <r>   -45.9550     0.0000     2.0000 </r>
       <r>   -45.9190     0.0000     2.0000 </r>
       <r>   -45.8829     0.0000     2.0000 </r>
       <r>   -45.8469     0.0000     2.0000 </r>
       <r>   -45.8109     0.0000     2.0000 </r>
       <r>   -45.7749     0.0000     2.0000 </r>
       <r>   -45.7389     0.0000     2.0000 </r>
       <r>   -45.7028     0.0000     2.0000 </r>
       <r>   -45.6668     0.0000     2.0000 </r>
       <r>   -45.6308     0.0000     2.0000 </r>
       <r>   -45.5948     0.0000     2.0000 </r>
       <r>   -45.5587     0.0000     2.0000 </r>
       <r>   -45.5227     0.0000     2.0000 </r>
       <r>   -45.4867     0.0000     2.0000 </r>
       <r>   -45.4507     0.0000     2.0000 </r>
       <r>   -45.4147     0.0000     2.0000 </r>
       <r>   -45.3786     0.0000     2.0000 </r>
       <r>   -45.3426     0.0000     2.0000 </r>
       <r>   -45.3066     0.0000     2.0000 </r>
       <r>   -45.2706     0.0000     2.0000 </r>
       <r>   -45.2345     0.0000     2.0000 </r>
       <r>   -45.1985     0.0000     2.0000 </r>
       <r>   -45.1625     0.0000     2.0000 </r>
       <r>   -45.1265     0.0000     2.0000 </r>
       <r>   -45.0905     0.0000     2.0000 </r>
       <r>   -45.0544     0.0000     2.0000 </r>
       <r>   -45.0184     0.0000     2.0000 </r>
       <r>   -44.9824     0.0000     2.0000 </r>
       <r>   -44.9464     0.0000     2.0000 </r>
       <r>   -44.9103     0.0000     2.0000 </r>
       <r>   -44.8743     0.0000     2.0000 </r>
       <r>   -44.8383     0.0000     2.0000 </r>
       <r>   -44.8023     0.0000     2.0000 </r>
       <r>   -44.7663     0.0000     2.0000 </r>
       <r>   -44.7302     0.0000     2.0000 </r>
       <r>   -44.6942     0.0000     2.0000 </r>
       <r>   -44.6582     0.0000     2.0000 </r>
       <r>   -44.6222     0.0000     2.0000 </r>
       <r>   -44.5861     0.0000     2.0000 </r>
       <r>   -44.5501     0.0000     2.0000 </r>
       <r>   -44.5141     0.0000     2.0000 </r>
       <r>   -44.4781     0.0000     2.0000 </r>
       <r>   -44.4420     0.0000     2.0000 </r>
       <r>   -44.4060     0.0000     2.0000 </r>
       <r>   -44.3700     0.0000     2.0000 </r>
       <r>   -44.3340     0.0000     2.0000 </r>
       <r>   -44.2980     0.0000     2.0000 </r>
       <r>   -44.2619     0.0000     2.0000 </r>
       <r>   -44.2259     0.0000     2.0000 </r>
       <r>   -44.1899     0.0000     2.0000 </r>
       <r>   -44.1539     0.0000     2.0000 </r>
       <r>   -44.1178     0.0000     2.0000 </r>
       <r>   -44.0818     0.0000     2.0000 </r>
       <r>   -44.0458     0.0000     2.0000 </r>
       <r>   -44.0098     0.0000     2.0000 </r>
       <r>   -43.9738     0.0000     2.0000 </r>
       <r>   -43.9377     0.0000     2.0000 </r>
       <r>   -43.9017     0.0000     2.0000 </r>
       <r>   -43.8657     0.0000     2.0000 </r>
       <r>   -43.8297     0.0000     2.0000 </r>
       <r>   -43.7936     0.0000     2.0000 </r>
       <r>   -43.7576     0.0000     2.0000 </r>
       <r>   -43.7216     0.0000     2.0000 </r>
       <r>   -43.6856     0.0000     2.0000 </r>
       <r>   -43.6496     0.0000     2.0000 </r>
       <r>   -43.6135     0.0000     2.0000 </r>
       <r>   -43.5775     0.0000     2.0000 </r>
       <r>   -43.5415     0.0000     2.0000 </r>
       <r>   -43.5055     0.0000     2.0000 </r>
       <r>   -43.4694     0.0000     2.0000 </r>
       <r>   -43.4334     0.0000     2.0000 </r>
       <r>   -43.3974     0.0000     2.0000 </r>
       <r>   -43.3614     0.0000     2.0000 </r>
       <r>   -43.3254     0.0000     2.0000 </r>
       <r>   -43.2893     0.0000     2.0000 </r>
       <r>   -43.2533     0.0000     2.0000 </r>
       <r>   -43.2173     0.0000     2.0000 </r>
       <r>   -43.1813     0.0000     2.0000 </r>
       <r>   -43.1452     0.0000     2.0000 </r>
       <r>   -43.1092     0.0000     2.0000 </r>
       <r>   -43.0732     0.0000     2.0000 </r>
       <r>   -43.0372     0.0000     2.0000 </r>
       <r>   -43.0011     0.0000     2.0000 </r>
       <r>   -42.9651     0.0000     2.0000 </r>
       <r>   -42.9291     0.0000     2.0000 </r>
       <r>   -42.8931     0.0000     2.0000 </r>
       <r>   -42.8571     0.0000     2.0000 </r>
       <r>   -42.8210     0.0000     2.0000 </r>
       <r>   -42.7850     0.0000     2.0000 </r>
       <r>   -42.7490     0.0000     2.0000 </r>
       <r>   -42.7130     0.0000     2.0000 </r>
       <r>   -42.6769     0.0000     2.0000 </r>
       <r>   -42.6409     0.0000     2.0000 </r>
       <r>   -42.6049     0.0000     2.0000 </r>
       <r>   -42.5689     0.0000     2.0000 </r>
       <r>   -42.5329     0.0000     2.0000 </r>
       <r>   -42.4968     0.0000     2.0000 </r>
       <r>   -42.4608     0.0000     2.0000 </r>
       <r>   -42.4248     0.0000     2.0000 </r>
       <r>   -42.3888     0.0000     2.0000 </r>
       <r>   -42.3527     0.0000     2.0000 </r>
       <r>   -42.3167     0.0000     2.0000 </r>
       <r>   -42.2807     0.0000     2.0000 </r>
       <r>   -42.2447     0.0000     2.0000 </r>
       <r>   -42.2087     0.0000     2.0000 </r>
       <r>   -42.1726     0.0000     2.0000 </r>
       <r>   -42.1366     0.0000     2.0000 </r>
       <r>   -42.1006     0.0000     2.0000 </r>
       <r>   -42.0646     0.0000     2.0000 </r>
       <r>   -42.0285     0.0000     2.0000 </r>
       <r>   -41.9925     0.0000     2.0000 </r>
       <r>   -41.9565     0.0000     2.0000 </r>
       <r>   -41.9205     0.0000     2.0000 </r>
       <r>   -41.8845     0.0000     2.0000 </r>
       <r>   -41.8484     0.0000     2.0000 </r>
       <r>   -41.8124     0.0000     2.0000 </r>
       <r>   -41.7764     0.0000     2.0000 </r>
       <r>   -41.7404     0.0000     2.0000 </r>
       <r>   -41.7043     0.0000     2.0000 </r>
       <r>   -41.6683     0.0000     2.0000 </r>
       <r>   -41.6323     0.0000     2.0000 </r>
       <r>   -41.5963     0.0000     2.0000 </r>
       <r>   -41.5602     0.0000     2.0000 </r>
       <r>   -41.5242     0.0000     2.0000 </r>
       <r>   -41.4882     0.0000     2.0000 </r>
       <r>   -41.4522     0.0000     2.0000 </r>
       <r>   -41.4162     0.0000     2.0000 </r>
       <r>   -41.3801     0.0000     2.0000 </r>
       <r>   -41.3441     0.0000     2.0000 </r>
       <r>   -41.3081     0.0000     2.0000 </r>
       <r>   -41.2721     0.0000     2.0000 </r>
       <r>   -41.2360     0.0000     2.0000 </r>
       <r>   -41.2000     0.0000     2.0000 </r>
       <r>   -41.1640     0.0000     2.0000 </r>
       <r>   -41.1280     0.0000     2.0000 </r>
       <r>   -41.0920     0.0000     2.0000 </r>
       <r>   -41.0559     0.0000     2.0000 </r>
       <r>   -41.0199     0.0000     2.0000 </r>
       <r>   -40.9839     0.0000     2.0000 </r>
       <r>   -40.9479     0.0000     2.0000 </r>
       <r>   -40.9118     0.0000     2.0000 </r>
       <r>   -40.8758     0.0000     2.0000 </r>
       <r>   -40.8398     0.0000     2.0000 </r>
       <r>   -40.8038     0.0000     2.0000 </r>
       <r>   -40.7678     0.0000     2.0000 </r>
       <r>   -40.7317     0.0000     2.0000 </r>
       <r>   -40.6957     0.0000     2.0000 </r>
       <r>   -40.6597     0.0000     2.0000 </r>
       <r>   -40.6237     0.0000     2.0000 </r>
       <r>   -40.5876     0.0000     2.0000 </r>
       <r>   -40.5516     0.0000     2.0000 </r>
       <r>   -40.5156     0.0000     2.0000 </r>
       <r>   -40.4796     0.0000     2.0000 </r>
       <r>   -40.4436     0.0000     2.0000 </r>
       <r>   -40.4075     0.0000     2.0000 </r>
       <r>   -40.3715     0.0000     2.0000 </r>
       <r>   -40.3355     0.0000     2.0000 </r>
       <r>   -40.2995     0.0000     2.0000 </r>
       <r>   -40.2634     0.0000     2.0000 </r>
       <r>   -40.2274     0.0000     2.0000 </r>
       <r>   -40.1914     0.0000     2.0000 </r>
       <r>   -40.1554     0.0000     2.0000 </r>
       <r>   -40.1193     0.0000     2.0000 </r>
       <r>   -40.0833     0.0000     2.0000 </r>
       <r>   -40.0473     0.0000     2.0000 </r>
       <r>   -40.0113     0.0000     2.0000 </r>
       <r>   -39.9753     0.0000     2.0000 </r>
       <r>   -39.9392     0.0000     2.0000 </r>
       <r>   -39.9032     0.0000     2.0000 </r>
       <r>   -39.8672     0.0000     2.0000 </r>
       <r>   -39.8312     0.0000     2.0000 </r>
       <r>   -39.7951     0.0000     2.0000 </r>
       <r>   -39.7591     0.0000     2.0000 </r>
       <r>   -39.7231     0.0000     2.0000 </r>
       <r>   -39.6871     0.0000     2.0000 </r>
       <r>   -39.6511     0.0000     2.0000 </r>
       <r>   -39.6150     0.0000     2.0000 </r>
       <r>   -39.5790     0.0000     2.0000 </r>
       <r>   -39.5430     0.0000     2.0000 </r>
       <r>   -39.5070     0.0000     2.0000 </r>
       <r>   -39.4709     0.0000     2.0000 </r>
       <r>   -39.4349     0.0000     2.0000 </r>
       <r>   -39.3989     0.0000     2.0000 </r>
       <r>   -39.3629     0.0000     2.0000 </r>
       <r>   -39.3269     0.0000     2.0000 </r>
       <r>   -39.2908     0.0000     2.0000 </r>
       <r>   -39.2548     0.0000     2.0000 </r>
       <r>   -39.2188     0.0000     2.0000 </r>
       <r>   -39.1828     0.0000     2.0000 </r>
       <r>   -39.1467     0.0000     2.0000 </r>
       <r>   -39.1107     0.0000     2.0000 </r>
       <r>   -39.0747     0.0000     2.0000 </r>
       <r>   -39.0387     0.0000     2.0000 </r>
       <r>   -39.0027     0.0000     2.0000 </r>
       <r>   -38.9666     0.0000     2.0000 </r>
       <r>   -38.9306     0.0000     2.0000 </r>
       <r>   -38.8946     0.0000     2.0000 </r>
       <r>   -38.8586     0.0000     2.0000 </r>
       <r>   -38.8225     0.0000     2.0000 </r>
       <r>   -38.7865     0.0000     2.0000 </r>
       <r>   -38.7505     0.0000     2.0000 </r>
       <r>   -38.7145     0.0000     2.0000 </r>
       <r>   -38.6784     0.0000     2.0000 </r>
       <r>   -38.6424     0.0000     2.0000 </r>
       <r>   -38.6064     0.0000     2.0000 </r>
       <r>   -38.5704     0.0000     2.0000 </r>
       <r>   -38.5344     0.0000     2.0000 </r>
       <r>   -38.4983     0.0000     2.0000 </r>
       <r>   -38.4623     0.0000     2.0000 </r>
       <r>   -38.4263     0.0000     2.0000 </r>
       <r>   -38.3903     0.0000     2.0000 </r>
       <r>   -38.3542     0.0000     2.0000 </r>
       <r>   -38.3182     0.0000     2.0000 </r>
       <r>   -38.2822     0.0000     2.0000 </r>
       <r>   -38.2462     0.0000     2.0000 </r>
       <r>   -38.2102     0.0000     2.0000 </r>
       <r>   -38.1741     0.0000     2.0000 </r>
       <r>   -38.1381     0.0000     2.0000 </r>
       <r>   -38.1021     0.0000     2.0000 </r>
       <r>   -38.0661     0.0000     2.0000 </r>
       <r>   -38.0300     0.0000     2.0000 </r>
       <r>   -37.9940     0.0000     2.0000 </r>
       <r>   -37.9580     0.0000     2.0000 </r>
       <r>   -37.9220     0.0000     2.0000 </r>
       <r>   -37.8860     0.0000     2.0000 </r>
       <r>   -37.8499     0.0000     2.0000 </r>
       <r>   -37.8139     0.0000     2.0000 </r>
       <r>   -37.7779     0.0000     2.0000 </r>
       <r>   -37.7419     0.0000     2.0000 </r>
       <r>   -37.7058     0.0000     2.0000 </r>
       <r>   -37.6698     0.0000     2.0000 </r>
       <r>   -37.6338     0.0000     2.0000 </r>
       <r>   -37.5978     0.0000     2.0000 </r>
       <r>   -37.5618     0.0000     2.0000 </r>
       <r>   -37.5257     0.0000     2.0000 </r>
       <r>   -37.4897     0.0000     2.0000 </r>
       <r>   -37.4537     0.0000     2.0000 </r>
       <r>   -37.4177     0.0000     2.0000 </r>
       <r>   -37.3816     0.0000     2.0000 </r>
       <r>   -37.3456     0.0000     2.0000 </r>
       <r>   -37.3096     0.0000     2.0000 </r>
       <r>   -37.2736     0.0000     2.0000 </r>
       <r>   -37.2375     0.0000     2.0000 </r>
       <r>   -37.2015     0.0000     2.0000 </r>
       <r>   -37.1655     0.0000     2.0000 </r>
       <r>   -37.1295     0.0000     2.0000 </r>
       <r>   -37.0935     0.0000     2.0000 </r>
       <r>   -37.0574     0.0000     2.0000 </r>
       <r>   -37.0214     0.0000     2.0000 </r>
       <r>   -36.9854     0.0000     2.0000 </r>
       <r>   -36.9494     0.0000     2.0000 </r>
       <r>   -36.9133     0.0000     2.0000 </r>
       <r>   -36.8773     0.0017     2.0001 </r>
       <r>   -36.8413     0.0638     2.0024 </r>
       <r>   -36.8053     0.8896     2.0344 </r>
       <r>   -36.7693     4.7895     2.2069 </r>
       <r>   -36.7332    10.3144     2.5785 </r>
       <r>   -36.6972    10.3551     2.9515 </r>
       <r>   -36.6612     7.9841     3.2391 </r>
       <r>   -36.6252     7.6556     3.5149 </r>
       <r>   -36.5891    12.5629     3.9674 </r>
       <r>   -36.5531    23.6231     4.8184 </r>
       <r>   -36.5171    29.2028     5.8704 </r>
       <r>   -36.4811    23.0741     6.7015 </r>
       <r>   -36.4451    14.8244     7.2356 </r>
       <r>   -36.4090    10.2322     7.6041 </r>
       <r>   -36.3730     7.0486     7.8580 </r>
       <r>   -36.3370     3.1512     7.9716 </r>
       <r>   -36.3010     0.7125     7.9972 </r>
       <r>   -36.2649     0.0736     7.9999 </r>
       <r>   -36.2289     0.0032     8.0000 </r>
       <r>   -36.1929     0.0001     8.0000 </r>
       <r>   -36.1569     0.0000     8.0000 </r>
       <r>   -36.1208     0.0000     8.0000 </r>
       <r>   -36.0848     0.0000     8.0000 </r>
       <r>   -36.0488     0.0000     8.0000 </r>
       <r>   -36.0128     0.0000     8.0000 </r>
       <r>   -35.9768     0.0000     8.0000 </r>
       <r>   -35.9407     0.0000     8.0000 </r>
       <r>   -35.9047     0.0000     8.0000 </r>
       <r>   -35.8687     0.0000     8.0000 </r>
       <r>   -35.8327     0.0000     8.0000 </r>
       <r>   -35.7966     0.0000     8.0000 </r>
       <r>   -35.7606     0.0000     8.0000 </r>
       <r>   -35.7246     0.0000     8.0000 </r>
       <r>   -35.6886     0.0000     8.0000 </r>
       <r>   -35.6526     0.0000     8.0000 </r>
       <r>   -35.6165     0.0000     8.0000 </r>
       <r>   -35.5805     0.0000     8.0000 </r>
       <r>   -35.5445     0.0000     8.0000 </r>
       <r>   -35.5085     0.0000     8.0000 </r>
       <r>   -35.4724     0.0000     8.0000 </r>
       <r>   -35.4364     0.0000     8.0000 </r>
       <r>   -35.4004     0.0000     8.0000 </r>
       <r>   -35.3644     0.0000     8.0000 </r>
       <r>   -35.3284     0.0000     8.0000 </r>
       <r>   -35.2923     0.0000     8.0000 </r>
       <r>   -35.2563     0.0000     8.0000 </r>
       <r>   -35.2203     0.0000     8.0000 </r>
       <r>   -35.1843     0.0000     8.0000 </r>
       <r>   -35.1482     0.0000     8.0000 </r>
       <r>   -35.1122     0.0000     8.0000 </r>
       <r>   -35.0762     0.0000     8.0000 </r>
       <r>   -35.0402     0.0000     8.0000 </r>
       <r>   -35.0042     0.0000     8.0000 </r>
       <r>   -34.9681     0.0000     8.0000 </r>
       <r>   -34.9321     0.0000     8.0000 </r>
       <r>   -34.8961     0.0000     8.0000 </r>
       <r>   -34.8601     0.0000     8.0000 </r>
       <r>   -34.8240     0.0000     8.0000 </r>
       <r>   -34.7880     0.0000     8.0000 </r>
       <r>   -34.7520     0.0000     8.0000 </r>
       <r>   -34.7160     0.0000     8.0000 </r>
       <r>   -34.6799     0.0000     8.0000 </r>
       <r>   -34.6439     0.0000     8.0000 </r>
       <r>   -34.6079     0.0000     8.0000 </r>
       <r>   -34.5719     0.0000     8.0000 </r>
       <r>   -34.5359     0.0000     8.0000 </r>
       <r>   -34.4998     0.0000     8.0000 </r>
       <r>   -34.4638     0.0000     8.0000 </r>
       <r>   -34.4278     0.0000     8.0000 </r>
       <r>   -34.3918     0.0000     8.0000 </r>
       <r>   -34.3557     0.0000     8.0000 </r>
       <r>   -34.3197     0.0000     8.0000 </r>
       <r>   -34.2837     0.0000     8.0000 </r>
       <r>   -34.2477     0.0000     8.0000 </r>
       <r>   -34.2117     0.0000     8.0000 </r>
       <r>   -34.1756     0.0000     8.0000 </r>
       <r>   -34.1396     0.0000     8.0000 </r>
       <r>   -34.1036     0.0000     8.0000 </r>
       <r>   -34.0676     0.0000     8.0000 </r>
       <r>   -34.0315     0.0000     8.0000 </r>
       <r>   -33.9955     0.0000     8.0000 </r>
       <r>   -33.9595     0.0000     8.0000 </r>
       <r>   -33.9235     0.0000     8.0000 </r>
       <r>   -33.8875     0.0000     8.0000 </r>
       <r>   -33.8514     0.0000     8.0000 </r>
       <r>   -33.8154     0.0000     8.0000 </r>
       <r>   -33.7794     0.0000     8.0000 </r>
       <r>   -33.7434     0.0000     8.0000 </r>
       <r>   -33.7073     0.0000     8.0000 </r>
       <r>   -33.6713     0.0000     8.0000 </r>
       <r>   -33.6353     0.0000     8.0000 </r>
       <r>   -33.5993     0.0000     8.0000 </r>
       <r>   -33.5633     0.0000     8.0000 </r>
       <r>   -33.5272     0.0000     8.0000 </r>
       <r>   -33.4912     0.0000     8.0000 </r>
       <r>   -33.4552     0.0000     8.0000 </r>
       <r>   -33.4192     0.0000     8.0000 </r>
       <r>   -33.3831     0.0000     8.0000 </r>
       <r>   -33.3471     0.0000     8.0000 </r>
       <r>   -33.3111     0.0000     8.0000 </r>
       <r>   -33.2751     0.0000     8.0000 </r>
       <r>   -33.2390     0.0000     8.0000 </r>
       <r>   -33.2030     0.0000     8.0000 </r>
       <r>   -33.1670     0.0000     8.0000 </r>
       <r>   -33.1310     0.0000     8.0000 </r>
       <r>   -33.0950     0.0000     8.0000 </r>
       <r>   -33.0589     0.0000     8.0000 </r>
       <r>   -33.0229     0.0000     8.0000 </r>
       <r>   -32.9869     0.0000     8.0000 </r>
       <r>   -32.9509     0.0000     8.0000 </r>
       <r>   -32.9148     0.0000     8.0000 </r>
       <r>   -32.8788     0.0000     8.0000 </r>
       <r>   -32.8428     0.0000     8.0000 </r>
       <r>   -32.8068     0.0000     8.0000 </r>
       <r>   -32.7708     0.0000     8.0000 </r>
       <r>   -32.7347     0.0000     8.0000 </r>
       <r>   -32.6987     0.0000     8.0000 </r>
       <r>   -32.6627     0.0000     8.0000 </r>
       <r>   -32.6267     0.0000     8.0000 </r>
       <r>   -32.5906     0.0000     8.0000 </r>
       <r>   -32.5546     0.0000     8.0000 </r>
       <r>   -32.5186     0.0000     8.0000 </r>
       <r>   -32.4826     0.0000     8.0000 </r>
       <r>   -32.4466     0.0000     8.0000 </r>
       <r>   -32.4105     0.0000     8.0000 </r>
       <r>   -32.3745     0.0000     8.0000 </r>
       <r>   -32.3385     0.0000     8.0000 </r>
       <r>   -32.3025     0.0000     8.0000 </r>
       <r>   -32.2664     0.0000     8.0000 </r>
       <r>   -32.2304     0.0000     8.0000 </r>
       <r>   -32.1944     0.0000     8.0000 </r>
       <r>   -32.1584     0.0000     8.0000 </r>
       <r>   -32.1224     0.0000     8.0000 </r>
       <r>   -32.0863     0.0000     8.0000 </r>
       <r>   -32.0503     0.0000     8.0000 </r>
       <r>   -32.0143     0.0000     8.0000 </r>
       <r>   -31.9783     0.0000     8.0000 </r>
       <r>   -31.9422     0.0000     8.0000 </r>
       <r>   -31.9062     0.0000     8.0000 </r>
       <r>   -31.8702     0.0000     8.0000 </r>
       <r>   -31.8342     0.0000     8.0000 </r>
       <r>   -31.7981     0.0000     8.0000 </r>
       <r>   -31.7621     0.0000     8.0000 </r>
       <r>   -31.7261     0.0000     8.0000 </r>
       <r>   -31.6901     0.0000     8.0000 </r>
       <r>   -31.6541     0.0000     8.0000 </r>
       <r>   -31.6180     0.0000     8.0000 </r>
       <r>   -31.5820     0.0000     8.0000 </r>
       <r>   -31.5460     0.0000     8.0000 </r>
       <r>   -31.5100     0.0000     8.0000 </r>
       <r>   -31.4739     0.0000     8.0000 </r>
       <r>   -31.4379     0.0000     8.0000 </r>
       <r>   -31.4019     0.0000     8.0000 </r>
       <r>   -31.3659     0.0000     8.0000 </r>
       <r>   -31.3299     0.0000     8.0000 </r>
       <r>   -31.2938     0.0000     8.0000 </r>
       <r>   -31.2578     0.0000     8.0000 </r>
       <r>   -31.2218     0.0000     8.0000 </r>
       <r>   -31.1858     0.0000     8.0000 </r>
       <r>   -31.1497     0.0000     8.0000 </r>
       <r>   -31.1137     0.0000     8.0000 </r>
       <r>   -31.0777     0.0000     8.0000 </r>
       <r>   -31.0417     0.0000     8.0000 </r>
       <r>   -31.0057     0.0000     8.0000 </r>
       <r>   -30.9696     0.0000     8.0000 </r>
       <r>   -30.9336     0.0000     8.0000 </r>
       <r>   -30.8976     0.0000     8.0000 </r>
       <r>   -30.8616     0.0000     8.0000 </r>
       <r>   -30.8255     0.0000     8.0000 </r>
       <r>   -30.7895     0.0000     8.0000 </r>
       <r>   -30.7535     0.0000     8.0000 </r>
       <r>   -30.7175     0.0000     8.0000 </r>
       <r>   -30.6815     0.0000     8.0000 </r>
       <r>   -30.6454     0.0000     8.0000 </r>
       <r>   -30.6094     0.0000     8.0000 </r>
       <r>   -30.5734     0.0000     8.0000 </r>
       <r>   -30.5374     0.0000     8.0000 </r>
       <r>   -30.5013     0.0000     8.0000 </r>
       <r>   -30.4653     0.0000     8.0000 </r>
       <r>   -30.4293     0.0000     8.0000 </r>
       <r>   -30.3933     0.0000     8.0000 </r>
       <r>   -30.3572     0.0000     8.0000 </r>
       <r>   -30.3212     0.0000     8.0000 </r>
       <r>   -30.2852     0.0000     8.0000 </r>
       <r>   -30.2492     0.0000     8.0000 </r>
       <r>   -30.2132     0.0000     8.0000 </r>
       <r>   -30.1771     0.0000     8.0000 </r>
[...]
        <r>     5.9895     0.0000     0.0000     0.0000 </r>
        <r>     6.0255     0.0000     0.0000     0.0000 </r>
        <r>     6.0615     0.0000     0.0000     0.0000 </r>
        <r>     6.0975     0.0000     0.0000     0.0000 </r>
        <r>     6.1335     0.0000     0.0000     0.0000 </r>
        <r>     6.1696     0.0000     0.0000     0.0000 </r>
        <r>     6.2056     0.0000     0.0000     0.0000 </r>
        <r>     6.2416     0.0000     0.0000     0.0000 </r>
        <r>     6.2776     0.0000     0.0000     0.0000 </r>
        <r>     6.3137     0.0000     0.0000     0.0000 </r>
       </set>
      </set>
     </set>
    </array>
   </partial>
  </dos>
  <projected>
   <eigenvalues>
    <array>
     <dimension dim="1">band</dimension>
     <dimension dim="2">kpoint</dimension>
     <dimension dim="3">spin</dimension>
     <field>eigene</field>
     <field>occ</field>
     <set>
      <set comment="spin 1">
       <set comment="kpoint 1">
        <r>  -62.4566    1.0000 </r>
        <r>  -36.6161    1.0000 </r>
        <r>  -36.3782    1.0000 </r>
        <r>  -36.3782    1.0000 </r>
        <r>  -15.7775    1.0000 </r>
        <r>  -14.4709    1.0000 </r>
        <r>   -7.3081    1.0000 </r>
        <r>   -4.1929    1.0000 </r>
        <r>   -4.1929    1.0000 </r>
        <r>   -3.4697    1.0000 </r>
        <r>   -3.0692    1.0000 </r>
        <r>   -3.0692    1.0000 </r>
        <r>   -1.6998    1.0000 </r>
        <r>    1.2200    0.0000 </r>
        <r>    1.2200    0.0000 </r>
        <r>    1.4569    0.0000 </r>
        <r>    1.4569    0.0000 </r>
       </set>
       <set comment="kpoint 2">
        <r>  -62.4421    1.0000 </r>
        <r>  -36.5879    1.0000 </r>
        <r>  -36.5210    1.0000 </r>
        <r>  -36.4108    1.0000 </r>
        <r>  -15.2027    1.0000 </r>
        <r>  -14.2320    1.0000 </r>
        <r>   -6.7551    1.0000 </r>
        <r>   -5.1890    1.0000 </r>
        <r>   -4.8417    1.0000 </r>
        <r>   -3.8141    1.0000 </r>
        <r>   -3.6087    1.0000 </r>
        <r>   -2.7918    1.0000 </r>
        <r>   -2.1141    1.0000 </r>
        <r>    0.5856    0.0000 </r>
        <r>    0.9459    0.0000 </r>
        <r>    1.1175    0.0000 </r>
        <r>    1.9983    0.0000 </r>
       </set>
       <set comment="kpoint 3">
        <r>  -62.4185    1.0000 </r>
        <r>  -36.7456    1.0000 </r>
        <r>  -36.5418    1.0000 </r>
        <r>  -36.4631    1.0000 </r>
        <r>  -14.0612    1.0000 </r>
        <r>  -13.7736    1.0000 </r>
        <r>   -7.2300    1.0000 </r>
        <r>   -6.2452    1.0000 </r>
        <r>   -5.6211    1.0000 </r>
        <r>   -4.6547    1.0000 </r>
        <r>   -3.4626    1.0000 </r>
        <r>   -2.6653    1.0000 </r>
        <r>   -2.4895    1.0000 </r>
        <r>    0.6759    0.0000 </r>
        <r>    0.9893    0.0000 </r>
        <r>    2.1443    0.0000 </r>
        <r>    2.6883    0.0000 </r>
       </set>
       <set comment="kpoint 4">
        <r>  -62.4230    1.0000 </r>
        <r>  -36.6672    1.0000 </r>
        <r>  -36.5506    1.0000 </r>
        <r>  -36.4905    1.0000 </r>
        <r>  -14.3180    1.0000 </r>
        <r>  -13.8614    1.0000 </r>
        <r>   -6.7044    1.0000 </r>
        <r>   -5.8663    1.0000 </r>
        <r>   -5.3447    1.0000 </r>
        <r>   -4.9873    1.0000 </r>
        <r>   -3.8574    1.0000 </r>
        <r>   -2.8698    1.0000 </r>
        <r>   -2.3870    1.0000 </r>
        <r>    0.3981    0.0000 </r>
        <r>    1.0205    0.0000 </r>
        <r>    1.3101    0.0000 </r>
        <r>    2.8553    0.0000 </r>
       </set>
       <set comment="kpoint 5">
        <r>  -62.4112    1.0000 </r>
        <r>  -36.7366    1.0000 </r>
        <r>  -36.5592    1.0000 </r>
        <r>  -36.5275    1.0000 </r>
        <r>  -13.6511    1.0000 </r>
        <r>  -13.5777    1.0000 </r>
        <r>   -6.9046    1.0000 </r>
        <r>   -6.8664    1.0000 </r>
        <r>   -5.5679    1.0000 </r>
        <r>   -4.7413    1.0000 </r>
        <r>   -4.3472    1.0000 </r>
        <r>   -3.5996    1.0000 </r>
        <r>   -1.8575    1.0000 </r>
        <r>    0.5111    0.0000 </r>
        <r>    1.6478    0.0000 </r>
        <r>    1.7212    0.0000 </r>
        <r>    3.0389    0.0000 </r>
       </set>
      </set>
     </set>
    </array>
   </eigenvalues>
   <array>
    <dimension dim="1">ion</dimension>
    <dimension dim="2">band</dimension>
    <dimension dim="3">kpoint</dimension>
    <dimension dim="4">spin</dimension>
    <field>  s  </field>
    <field>  p  </field>
    <field>  d  </field>
    <set>
     <set comment="spin1">
      <set comment="kpoint 1">
       <set comment="band 1">
        <r>  0.9948  0.0000  0.0000 </r>
        <r>  0.0001  0.0001  0.0000 </r>
        <r>  0.0001  0.0001  0.0000 </r>
       </set>
       <set comment="band 2">
        <r>  0.0000  0.9774  0.0000 </r>
        <r>  0.0019  0.0006  0.0000 </r>
        <r>  0.0019  0.0006  0.0000 </r>
       </set>
       <set comment="band 3">
        <r>  0.0000  0.9933  0.0000 </r>
        <r>  0.0000  0.0002  0.0000 </r>
        <r>  0.0000  0.0002  0.0000 </r>
       </set>
       <set comment="band 4">
        <r>  0.0000  0.9933  0.0000 </r>
        <r>  0.0000  0.0002  0.0000 </r>
        <r>  0.0000  0.0002  0.0000 </r>
       </set>
       <set comment="band 5">
        <r>  0.0828  0.0000  0.0003 </r>
        <r>  0.2746  0.0051  0.0000 </r>
        <r>  0.2746  0.0051  0.0000 </r>
       </set>
       <set comment="band 6">
        <r>  0.0000  0.0351  0.0000 </r>
        <r>  0.3121  0.0003  0.0000 </r>
        <r>  0.3121  0.0003  0.0000 </r>
       </set>
       <set comment="band 7">
        <r>  0.0990  0.0000  0.1773 </r>
        <r>  0.0176  0.1243  0.0000 </r>
        <r>  0.0176  0.1243  0.0000 </r>
       </set>
       <set comment="band 8">
        <r>  0.0000  0.0035  0.5534 </r>
        <r>  0.0000  0.1119  0.0000 </r>
        <r>  0.0000  0.1119  0.0000 </r>
       </set>
       <set comment="band 9">
        <r>  0.0000  0.0035  0.5534 </r>
        <r>  0.0000  0.1119  0.0000 </r>
        <r>  0.0000  0.1119  0.0000 </r>
       </set>
       <set comment="band 10">
        <r>  0.0000  0.0310  0.0000 </r>
        <r>  0.0003  0.2453  0.0000 </r>
        <r>  0.0003  0.2453  0.0000 </r>
       </set>
       <set comment="band 11">
        <r>  0.0000  0.0000  0.5055 </r>
        <r>  0.0000  0.1532  0.0000 </r>
        <r>  0.0000  0.1532  0.0000 </r>
       </set>
       <set comment="band 12">
        <r>  0.0000  0.0000  0.5055 </r>
        <r>  0.0000  0.1532  0.0000 </r>
        <r>  0.0000  0.1532  0.0000 </r>
       </set>
       <set comment="band 13">
        <r>  0.0102  0.0000  0.5627 </r>
        <r>  0.0020  0.0708  0.0000 </r>
        <r>  0.0020  0.0708  0.0000 </r>
       </set>
       <set comment="band 14">
        <r>  0.0000  0.0000  0.3494 </r>
        <r>  0.0000  0.1847  0.0000 </r>
        <r>  0.0000  0.1847  0.0000 </r>
       </set>
       <set comment="band 15">
        <r>  0.0000  0.0000  0.3494 </r>
        <r>  0.0000  0.1847  0.0000 </r>
        <r>  0.0000  0.1847  0.0000 </r>
       </set>
       <set comment="band 16">
        <r>  0.0000  0.0104  0.2866 </r>
        <r>  0.0000  0.2329  0.0000 </r>
        <r>  0.0000  0.2329  0.0000 </r>
       </set>
       <set comment="band 17">
        <r>  0.0000  0.0104  0.2866 </r>
        <r>  0.0000  0.2329  0.0000 </r>
        <r>  0.0000  0.2329  0.0000 </r>
       </set>
      </set>
      <set comment="kpoint 2">
       <set comment="band 1">
        <r>  0.9953  0.0000  0.0000 </r>
        <r>  0.0001  0.0001  0.0000 </r>
        <r>  0.0001  0.0001  0.0000 </r>
       </set>
       <set comment="band 2">
        <r>  0.0000  0.9797  0.0000 </r>
        <r>  0.0013  0.0006  0.0000 </r>
        <r>  0.0013  0.0006  0.0000 </r>
       </set>
       <set comment="band 3">
        <r>  0.0001  0.9855  0.0001 </r>
        <r>  0.0004  0.0004  0.0000 </r>
        <r>  0.0004  0.0004  0.0000 </r>
       </set>
       <set comment="band 4">
        <r>  0.0000  0.9918  0.0001 </r>
        <r>  0.0000  0.0002  0.0000 </r>
        <r>  0.0000  0.0002  0.0000 </r>
       </set>
       <set comment="band 5">
        <r>  0.0648  0.0091  0.0065 </r>
        <r>  0.2837  0.0069  0.0000 </r>
        <r>  0.2837  0.0069  0.0000 </r>
       </set>
       <set comment="band 6">
        <r>  0.0000  0.0266  0.0245 </r>
        <r>  0.3158  0.0018  0.0000 </r>
        <r>  0.3158  0.0018  0.0000 </r>
       </set>
       <set comment="band 7">
        <r>  0.0508  0.0128  0.2191 </r>
        <r>  0.0099  0.1396  0.0000 </r>
        <r>  0.0099  0.1396  0.0000 </r>
       </set>
       <set comment="band 8">
        <r>  0.0636  0.0109  0.2949 </r>
        <r>  0.0187  0.1261  0.0000 </r>
        <r>  0.0187  0.1261  0.0000 </r>
       </set>
       <set comment="band 9">
        <r>  0.0000  0.0006  0.3023 </r>
        <r>  0.0019  0.1809  0.0000 </r>
        <r>  0.0019  0.1809  0.0000 </r>
       </set>
       <set comment="band 10">
        <r>  0.0000  0.0000  0.4648 </r>
        <r>  0.0000  0.1591  0.0000 </r>
        <r>  0.0000  0.1591  0.0000 </r>
       </set>
       <set comment="band 11">
        <r>  0.0000  0.0139  0.4533 </r>
        <r>  0.0000  0.1458  0.0000 </r>
        <r>  0.0000  0.1458  0.0000 </r>
       </set>
       <set comment="band 12">
        <r>  0.0000  0.0402  0.0058 </r>
        <r>  0.0060  0.2615  0.0000 </r>
        <r>  0.0060  0.2615  0.0000 </r>
       </set>
       <set comment="band 13">
        <r>  0.0124  0.0023  0.5721 </r>
        <r>  0.0076  0.0748  0.0000 </r>
        <r>  0.0076  0.0748  0.0000 </r>
       </set>
       <set comment="band 14">
        <r>  0.0025  0.0040  0.4237 </r>
        <r>  0.0083  0.1165  0.0000 </r>
        <r>  0.0083  0.1165  0.0000 </r>
       </set>
       <set comment="band 15">
        <r>  0.0000  0.0095  0.4002 </r>
        <r>  0.0000  0.1746  0.0000 </r>
        <r>  0.0000  0.1746  0.0000 </r>
       </set>
       <set comment="band 16">
        <r>  0.0000  0.0049  0.5026 </r>
        <r>  0.0263  0.0756  0.0000 </r>
        <r>  0.0263  0.0756  0.0000 </r>
       </set>
       <set comment="band 17">
        <r>  0.0000  0.0000  0.4188 </r>
        <r>  0.0000  0.1759  0.0000 </r>
        <r>  0.0000  0.1759  0.0000 </r>
       </set>
      </set>
      <set comment="kpoint 3">
       <set comment="band 1">
        <r>  0.9962  0.0000  0.0000 </r>
        <r>  0.0000  0.0001  0.0000 </r>
        <r>  0.0000  0.0001  0.0000 </r>
       </set>
       <set comment="band 2">
        <r>  0.0000  0.9740  0.0001 </r>
        <r>  0.0010  0.0007  0.0000 </r>
        <r>  0.0010  0.0007  0.0000 </r>
       </set>
       <set comment="band 3">
        <r>  0.0000  0.9834  0.0000 </r>
        <r>  0.0004  0.0007  0.0000 </r>
        <r>  0.0004  0.0007  0.0000 </r>
       </set>
       <set comment="band 4">
        <r>  0.0000  0.9895  0.0000 </r>
        <r>  0.0000  0.0003  0.0000 </r>
        <r>  0.0000  0.0003  0.0000 </r>
       </set>
       <set comment="band 5">
        <r>  0.0240  0.0244  0.0310 </r>
        <r>  0.3109  0.0070  0.0000 </r>
        <r>  0.3109  0.0070  0.0000 </r>
       </set>
       <set comment="band 6">
        <r>  0.0000  0.0075  0.0804 </r>
        <r>  0.3254  0.0036  0.0000 </r>
        <r>  0.3254  0.0036  0.0000 </r>
       </set>
       <set comment="band 7">
        <r>  0.0642  0.0106  0.1689 </r>
        <r>  0.0072  0.1523  0.0000 </r>
        <r>  0.0072  0.1523  0.0000 </r>
       </set>
       <set comment="band 8">
        <r>  0.0000  0.0268  0.1515 </r>
        <r>  0.0102  0.1844  0.0000 </r>
        <r>  0.0102  0.1844  0.0000 </r>
       </set>
       <set comment="band 9">
        <r>  0.0252  0.0249  0.2150 </r>
        <r>  0.0219  0.1537  0.0000 </r>
        <r>  0.0219  0.1537  0.0000 </r>
       </set>
       <set comment="band 10">
        <r>  0.0000  0.0000  0.4390 </r>
        <r>  0.0000  0.1640  0.0000 </r>
        <r>  0.0000  0.1640  0.0000 </r>
       </set>
       <set comment="band 11">
        <r>  0.0000  0.0175  0.1290 </r>
        <r>  0.0116  0.2325  0.0000 </r>
        <r>  0.0116  0.2325  0.0000 </r>
       </set>
       <set comment="band 12">
        <r>  0.0000  0.0344  0.1444 </r>
        <r>  0.0000  0.2504  0.0000 </r>
        <r>  0.0000  0.2504  0.0000 </r>
       </set>
       <set comment="band 13">
        <r>  0.0144  0.0419  0.4341 </r>
        <r>  0.0042  0.0724  0.0000 </r>
        <r>  0.0042  0.0724  0.0000 </r>
       </set>
       <set comment="band 14">
        <r>  0.0000  0.0030  0.7755 </r>
        <r>  0.0000  0.0458  0.0000 </r>
        <r>  0.0000  0.0458  0.0000 </r>
       </set>
       <set comment="band 15">
        <r>  0.0100  0.0036  0.6813 </r>
        <r>  0.0024  0.0491  0.0000 </r>
        <r>  0.0024  0.0491  0.0000 </r>
       </set>
       <set comment="band 16">
        <r>  0.0000  0.0055  0.4219 </r>
        <r>  0.0279  0.0793  0.0000 </r>
        <r>  0.0279  0.0793  0.0000 </r>
       </set>
       <set comment="band 17">
        <r>  0.0000  0.0000  0.4645 </r>
        <r>  0.0000  0.1607  0.0000 </r>
        <r>  0.0000  0.1607  0.0000 </r>
       </set>
      </set>
      <set comment="kpoint 4">
       <set comment="band 1">
        <r>  0.9960  0.0000  0.0000 </r>
        <r>  0.0000  0.0001  0.0000 </r>
        <r>  0.0000  0.0001  0.0000 </r>
       </set>
       <set comment="band 2">
        <r>  0.0001  0.9780  0.0001 </r>
        <r>  0.0008  0.0006  0.0000 </r>
        <r>  0.0008  0.0006  0.0000 </r>
       </set>
       <set comment="band 3">
        <r>  0.0000  0.9827  0.0000 </r>
        <r>  0.0005  0.0007  0.0000 </r>
        <r>  0.0005  0.0007  0.0000 </r>
       </set>
       <set comment="band 4">
        <r>  0.0000  0.9879  0.0002 </r>
        <r>  0.0001  0.0004  0.0000 </r>
        <r>  0.0001  0.0004  0.0000 </r>
       </set>
       <set comment="band 5">
        <r>  0.0339  0.0219  0.0219 </r>
        <r>  0.3030  0.0078  0.0000 </r>
        <r>  0.3030  0.0078  0.0000 </r>
       </set>
       <set comment="band 6">
        <r>  0.0000  0.0125  0.0646 </r>
        <r>  0.3237  0.0034  0.0000 </r>
        <r>  0.3237  0.0034  0.0000 </r>
       </set>
       <set comment="band 7">
        <r>  0.0120  0.0207  0.2675 </r>
        <r>  0.0004  0.1487  0.0000 </r>
        <r>  0.0004  0.1487  0.0000 </r>
       </set>
       <set comment="band 8">
        <r>  0.0000  0.0070  0.2826 </r>
        <r>  0.0059  0.1728  0.0000 </r>
        <r>  0.0059  0.1728  0.0000 </r>
       </set>
       <set comment="band 9">
        <r>  0.1021  0.0180  0.0671 </r>
        <r>  0.0365  0.1684  0.0000 </r>
        <r>  0.0365  0.1684  0.0000 </r>
       </set>
       <set comment="band 10">
        <r>  0.0000  0.0069  0.3038 </r>
        <r>  0.0045  0.1765  0.0000 </r>
        <r>  0.0045  0.1765  0.0000 </r>
       </set>
       <set comment="band 11">
        <r>  0.0077  0.0414  0.2115 </r>
        <r>  0.0009  0.1701  0.0000 </r>
        <r>  0.0009  0.1701  0.0000 </r>
       </set>
       <set comment="band 12">
        <r>  0.0000  0.0388  0.0562 </r>
        <r>  0.0091  0.2592  0.0000 </r>
        <r>  0.0091  0.2592  0.0000 </r>
       </set>
       <set comment="band 13">
        <r>  0.0004  0.0006  0.5978 </r>
        <r>  0.0039  0.0875  0.0000 </r>
        <r>  0.0039  0.0875  0.0000 </r>
       </set>
       <set comment="band 14">
        <r>  0.0063  0.0103  0.5074 </r>
        <r>  0.0038  0.0788  0.0000 </r>
        <r>  0.0038  0.0788  0.0000 </r>
       </set>
       <set comment="band 15">
        <r>  0.0158  0.0003  0.7450 </r>
        <r>  0.0000  0.0528  0.0000 </r>
        <r>  0.0000  0.0528  0.0000 </r>
       </set>
       <set comment="band 16">
        <r>  0.0000  0.0016  0.5443 </r>
        <r>  0.0187  0.0597  0.0000 </r>
        <r>  0.0187  0.0597  0.0000 </r>
       </set>
       <set comment="band 17">
        <r>  0.0000  0.0019  0.4928 </r>
        <r>  0.0117  0.1289  0.0000 </r>
        <r>  0.0117  0.1289  0.0000 </r>
       </set>
      </set>
      <set comment="kpoint 5">
       <set comment="band 1">
        <r>  0.9964  0.0000  0.0000 </r>
        <r>  0.0000  0.0000  0.0000 </r>
        <r>  0.0000  0.0000  0.0000 </r>
       </set>
       <set comment="band 2">
        <r>  0.0000  0.9745  0.0002 </r>
        <r>  0.0010  0.0007  0.0000 </r>
        <r>  0.0010  0.0007  0.0000 </r>
       </set>
       <set comment="band 3">
        <r>  0.0000  0.9845  0.0001 </r>
        <r>  0.0002  0.0005  0.0000 </r>
        <r>  0.0002  0.0005  0.0000 </r>
       </set>
       <set comment="band 4">
        <r>  0.0000  0.9846  0.0000 </r>
        <r>  0.0001  0.0007  0.0000 </r>
        <r>  0.0001  0.0007  0.0000 </r>
       </set>
       <set comment="band 5">
        <r>  0.0055  0.0315  0.0411 </r>
        <r>  0.3240  0.0060  0.0000 </r>
        <r>  0.3240  0.0060  0.0000 </r>
       </set>
       <set comment="band 6">
        <r>  0.0000  0.0014  0.0951 </r>
        <r>  0.3327  0.0037  0.0000 </r>
        <r>  0.3327  0.0037  0.0000 </r>
       </set>
       <set comment="band 7">
        <r>  0.0826  0.0173  0.0886 </r>
        <r>  0.0025  0.1693  0.0000 </r>
        <r>  0.0025  0.1693  0.0000 </r>
       </set>
       <set comment="band 8">
        <r>  0.0000  0.0078  0.2794 </r>
        <r>  0.0037  0.1613  0.0000 </r>
        <r>  0.0037  0.1613  0.0000 </r>
       </set>
       <set comment="band 9">
        <r>  0.0022  0.0250  0.2722 </r>
        <r>  0.0161  0.1505  0.0000 </r>
        <r>  0.0161  0.1505  0.0000 </r>
       </set>
       <set comment="band 10">
        <r>  0.0000  0.0332  0.1694 </r>
        <r>  0.0031  0.2049  0.0000 </r>
        <r>  0.0031  0.2049  0.0000 </r>
       </set>
       <set comment="band 11">
        <r>  0.0234  0.0480  0.0525 </r>
        <r>  0.0125  0.2032  0.0000 </r>
        <r>  0.0125  0.2032  0.0000 </r>
       </set>
       <set comment="band 12">
        <r>  0.0000  0.0163  0.1760 </r>
        <r>  0.0157  0.2223  0.0000 </r>
        <r>  0.0157  0.2223  0.0000 </r>
       </set>
       <set comment="band 13">
        <r>  0.0044  0.0120  0.5750 </r>
        <r>  0.0000  0.0807  0.0000 </r>
        <r>  0.0000  0.0807  0.0000 </r>
       </set>
       <set comment="band 14">
        <r>  0.0219  0.0024  0.7663 </r>
        <r>  0.0000  0.0391  0.0000 </r>
        <r>  0.0000  0.0391  0.0000 </r>
       </set>
       <set comment="band 15">
        <r>  0.0041  0.0165  0.6963 </r>
        <r>  0.0035  0.0568  0.0000 </r>
        <r>  0.0035  0.0568  0.0000 </r>
       </set>
       <set comment="band 16">
        <r>  0.0000  0.0021  0.4862 </r>
        <r>  0.0016  0.0854  0.0000 </r>
        <r>  0.0016  0.0854  0.0000 </r>
       </set>
       <set comment="band 17">
        <r>  0.0000  0.0003  0.5222 </r>
        <r>  0.0264  0.0949  0.0000 </r>
        <r>  0.0264  0.0949  0.0000 </r>
       </set>
      </set>
     </set>
    </set>
   </array>
  </projected>
 </calculation>
 <structure name="finalpos" >
  <crystal>
   <varray name="basis" >
    <v>       3.15456502       0.00000000       0.00000000 </v>
    <v>      -1.57728251       2.73193344       0.00000000 </v>
    <v>       0.00000000       0.00000000      18.46774854 </v>
   </varray>
   <i name="volume">    159.15619590 </i>
   <varray name="rec_basis" >
    <v>       0.31700092       0.18302056       0.00000000 </v>
    <v>       0.00000000       0.36604113       0.00000000 </v>
    <v>       0.00000000       0.00000000       0.05414845 </v>
   </varray>
  </crystal>
  <varray name="positions" >
   <v>       0.00000000       0.00000000       0.50000000 </v>
   <v>       0.66666667       0.33333333       0.58483600 </v>
   <v>       0.66666667       0.33333333       0.41516400 </v>
  </varray>
 </structure>
</modeling>
