 vasp.6.4.0 14Feb23 (build Sep 06 2023 13:50:09) complex                        
  
 executed on             LinuxIFC date 2025.08.13  15:33:44
 running   40 mpi-ranks, on    2 nodes
 distrk:  each k-point on   40 cores,    1 groups
 distr:  one band on NCORE=   4 cores,   10 groups


--------------------------------------------------------------------------------------------------------


 INCAR:
   ISTART = 0            (Read existing wavefunction, if there)
   ISPIN = 1            (Non-Spin polarised DFT)
   LREAL = .FALSE.       (Projection operators: automatic)
   ENCUT = 400        (Cut-off energy for plane wave basis set, in eV)
   PREC = Accurate   (Precision level: Normal or Accurate, set Accurate when perform structure lattice relaxation calculation)
   LWAVE = .TRUE.        (Write WAVECAR or not)
   LCHARG = .TRUE.        (Write CHGCAR or not)
   ADDGRID = .TRUE.        (Increase grid, helps GGA convergence)
   ISMEAR = 0            (gaussian smearing method)
   SIGMA = 0.05         (please check the width of the smearing)
   LORBIT = 11           (PAW radii for projected DOS)
   NEDOS = 2001         (DOSCAR points)
   NELM = 100           (Max electronic SCF steps)
   EDIFF = 1E-08        (SCF energy convergence, in eV)
   LSORBIT = .TRUE.    (Activate SOC)
   GGA_COMPAT = .FALSE.   (Apply spherical cutoff on gradient field)
   VOSKOWN = 1        (Enhances the magnetic moments and the magnetic energies)
   LMAXMIX = 4        (For d elements increase LMAXMIX to 4, f: LMAXMIX \= 6)
   ISYM = -1       (Switch symmetry off)
   NPAR = 10

 POTCAR:    PAW_PBE Th 07Sep2000                  
 POTCAR:    PAW_PBE As 22Sep2009                  
 -----------------------------------------------------------------------------
|                                                                             |
|           W    W    AA    RRRRR   N    N  II  N    N   GGGG   !!!           |
|           W    W   A  A   R    R  NN   N  II  NN   N  G    G  !!!           |
|           W    W  A    A  R    R  N N  N  II  N N  N  G       !!!           |
|           W WW W  AAAAAA  RRRRR   N  N N  II  N  N N  G  GGG   !            |
|           WW  WW  A    A  R   R   N   NN  II  N   NN  G    G                |
|           W    W  A    A  R    R  N    N  II  N    N   GGGG   !!!           |
|                                                                             |
|     You use a magnetic or noncollinear calculation, but did not specify     |
|     the initial magnetic moment with the MAGMOM tag. Note that a            |
|     default of 1 will be used for all atoms. This ferromagnetic setup       |
|     may break the symmetry of the crystal, in particular it may rule        |
|     out finding an antiferromagnetic solution. Thence, we recommend         |
|     setting the initial magnetic moment manually or verifying carefully     |
|     that this magnetic setup is desired.                                    |
|                                                                             |
 -----------------------------------------------------------------------------

 POTCAR:    PAW_PBE Th 07Sep2000                  
   SHA256 =  d41e9f824f712d7814b19b6bc43381cc9a373f2ab99e53c63e55d3471ac6bd23 Th/POTCAR             
   COPYR  = (c) Copyright 07Sep2000 Georg Kresse                                                    
   COPYR  = This file is part of the software VASP. Any use, copying, and all other rights are regul
   COPYR  = If you do not have a valid VASP license, you may not use, copy or distribute this file. 
   VRHFIN =Th:  [Xe,5d,4f]                                                                          
   LEXCH  = PE                                                                                      
   EATOM  =   984.7553 eV,   72.3775 Ry                                                             
                                                                                                    
   TITEL  = PAW_PBE Th 07Sep2000                                                                    
   LULTRA =        F    use ultrasoft PP ?                                                          
   IUNSCR =        1    unscreen: 0-lin 1-nonlin 2-no                                               
   RPACOR =    2.200    partial core radius                                                         
   POMASS =  232.039; ZVAL   =   12.000    mass and valenz                                          
   RCORE  =    2.800    outmost cutoff radius                                                       
   RWIGS  =    3.000; RWIGS  =    1.588    wigner-seitz radius (au A)                               
   ENMAX  =  247.306; ENMIN  =  185.480 eV                                                          
   RCLOC  =    2.211    cutoff for local pot                                                        
   LCOR   =        T    correct aug charges                                                         
   LPAW   =        T    paw PP                                                                      
   EAUG   =  535.431                                                                                
   DEXC   =    0.000                                                                                
   RMAX   =    2.862    core radius for proj-oper                                                   
   RAUG   =    1.300    factor for augmentation sphere                                              
   RDEP   =    2.926    radius for radial grids                                                     
   RDEPT  =    2.250    core radius for aug-charge                                                  
                                                                                                    
   Atomic configuration                                                                             
   18 entries                                                                                       
     n  l   j            E        occ.                                                              
     1  0  0.50   -109990.1879   2.0000                                                             
     2  0  0.50    -20388.0147   2.0000                                                             
     2  1  1.50    -17049.6156   6.0000                                                             
     3  0  0.50     -5106.5436   2.0000                                                             
     3  1  1.50     -4175.1262   6.0000                                                             
     3  2  2.50     -3342.8437  10.0000                                                             
     4  0  0.50     -1280.8211   2.0000                                                             
     4  1  1.50      -976.4859   6.0000                                                             
     4  2  2.50      -661.8358  10.0000                                                             
     4  3  3.50      -324.9124  14.0000                                                             
     5  0  0.50      -278.7726   2.0000                                                             
     5  1  1.50      -186.2212   6.0000                                                             
     5  2  2.50       -86.9031  10.0000                                                             
     6  0  0.50       -43.3059   2.0000                                                             
     7  0  0.50        -4.0783   2.0000                                                             
     6  1  1.50       -21.4071   6.0000                                                             
     6  2  1.50        -2.3664   1.0000                                                             
     5  3  2.50        -1.2804   1.0000                                                             
   Description                                                                                      
     l       E           TYP  RCUT    TYP  RCUT                                                     
     0    -43.3059201     23  2.800                                                                 
     0     -4.0782900     23  2.800                                                                 
     1    -21.4071032     23  2.500                                                                 
     1    -22.7676858     23  2.500                                                                 
     2     -2.3664170     23  2.500                                                                 
     2      3.0546543     23  2.500                                                                 
     3     -1.2803910     23  2.800                                                                 
     3      0.1360583     23  2.800                                                                 
  local pseudopotential read in
  partial core-charges read in
  partial kinetic energy density read in
  atomic valenz-charges read in
  non local Contribution for L=           0  read in
    real space projection operators read in
  non local Contribution for L=           0  read in
    real space projection operators read in
  non local Contribution for L=           1  read in
    real space projection operators read in
  non local Contribution for L=           1  read in
    real space projection operators read in
  non local Contribution for L=           2  read in
    real space projection operators read in
  non local Contribution for L=           2  read in
    real space projection operators read in
  non local Contribution for L=           3  read in
    real space projection operators read in
  non local Contribution for L=           3  read in
    real space projection operators read in
    PAW grid and wavefunctions read in
 
   number of l-projection  operators is LMAX  =           8
   number of lm-projection operators is LMMAX =          32
 
 POTCAR:    PAW_PBE As 22Sep2009                  
   SHA256 =  bc8fb55b00baa90d383a523722e1771deb40ea3f17a5ce25913641995975acad As/POTCAR             
   COPYR  = (c) Copyright 22Sep2009 Georg Kresse                                                    
   COPYR  = This file is part of the software VASP. Any use, copying, and all other rights are regul
   COPYR  = If you do not have a valid VASP license, you may not use, copy or distribute this file. 
   VRHFIN =As: s2p3                                                                                 
   LEXCH  = PE                                                                                      
   EATOM  =   170.1867 eV,   12.5084 Ry                                                             
                                                                                                    
   TITEL  = PAW_PBE As 22Sep2009                                                                    
   LULTRA =        F    use ultrasoft PP ?                                                          
   IUNSCR =        1    unscreen: 0-lin 1-nonlin 2-no                                               
   RPACOR =    1.900    partial core radius                                                         
   POMASS =   74.922; ZVAL   =    5.000    mass and valenz                                          
   RCORE  =    2.100    outmost cutoff radius                                                       
   RWIGS  =    2.300; RWIGS  =    1.217    wigner-seitz radius (au A)                               
   ENMAX  =  208.702; ENMIN  =  156.526 eV                                                          
   ICORE  =        3    local potential                                                             
   LCOR   =        T    correct aug charges                                                         
   LPAW   =        T    paw PP                                                                      
   EAUG   =  462.758                                                                                
   DEXC   =    0.000                                                                                
   RMAX   =    2.144    core radius for proj-oper                                                   
   RAUG   =    1.300    factor for augmentation sphere                                              
   RDEP   =    2.140    radius for radial grids                                                     
   RDEPT  =    1.956    core radius for aug-charge                                                  
                                                                                                    
   Atomic configuration                                                                             
   10 entries                                                                                       
     n  l   j            E        occ.                                                              
     1  0  0.50    -11718.0418   2.0000                                                             
     2  0  0.50     -1486.5454   2.0000                                                             
     2  1  1.50     -1303.3889   6.0000                                                             
     3  0  0.50      -190.2849   2.0000                                                             
     3  1  1.50      -133.6555   6.0000                                                             
     3  2  2.50       -40.6443  10.0000                                                             
     4  0  0.50       -14.4936   2.0000                                                             
     4  1  0.50        -5.1947   3.0000                                                             
     4  2  1.50        -5.4423   0.0000                                                             
     4  3  2.50        -5.4423   0.0000                                                             
   Description                                                                                      
     l       E           TYP  RCUT    TYP  RCUT                                                     
     0    -14.4935570     23  2.100                                                                 
     0    -11.9212055     23  2.100                                                                 
     1     -5.1947127     23  2.100                                                                 
     1     27.2116520     23  2.100                                                                 
     2     -5.4423304     23  2.100                                                                 
     3     -1.3605826      7  2.100                                                                 
  local pseudopotential read in
  partial core-charges read in
  partial kinetic energy density read in
  atomic valenz-charges read in
  non local Contribution for L=           0  read in
    real space projection operators read in
  non local Contribution for L=           0  read in
    real space projection operators read in
  non local Contribution for L=           1  read in
    real space projection operators read in
  non local Contribution for L=           1  read in
    real space projection operators read in
  non local Contribution for L=           2  read in
    real space projection operators read in
    PAW grid and wavefunctions read in
 
   number of l-projection  operators is LMAX  =           5
   number of lm-projection operators is LMMAX =          13
 
  PAW_PBE Th 07Sep2000                  :
 energy of atom  1       EATOM= -984.7553
 kinetic energy error for atom=    0.0030 (will be added to EATOM!!)
  PAW_PBE As 22Sep2009                  :
 energy of atom  2       EATOM= -170.1867
 kinetic energy error for atom=    0.0013 (will be added to EATOM!!)
 
 
 POSCAR: Th2 As4
  positions in direct lattice
  velocities in cartesian coordinates
 exchange correlation table for  LEXCH =        8
   RHO(1)=    0.500       N(1)  =     2000
   RHO(2)=  100.500       N(2)  =     4000
 


--------------------------------------------------------------------------------------------------------


 ion  position               nearest neighbor table
   1  0.000  0.500  0.282-   6 3.00   6 3.00   6 3.00   6 3.00   5 3.06   4 3.17   3 3.17   3 3.17
                             4 3.17
   2  0.500  0.000  0.718-   5 3.00   5 3.00   5 3.00   5 3.00   6 3.06   3 3.17   4 3.17   3 3.17
                             4 3.17
   3  0.000  0.000  0.000-   1 3.17   2 3.17   1 3.17   2 3.17
   4  0.500  0.500  0.000-   1 3.17   2 3.17   1 3.17   2 3.17
   5  0.000  0.500  0.641-   2 3.00   2 3.00   2 3.00   2 3.00   1 3.06
   6  0.500  0.000  0.359-   1 3.00   1 3.00   1 3.00   1 3.00   2 3.06
 

IMPORTANT INFORMATION: All symmetrisations will be switched off!
NOSYMM: (Re-)initialisation of all symmetry stuff for point group C_1.


----------------------------------------------------------------------------------------

                                     Primitive cell                                     

  volume of cell :     145.6099

  direct lattice vectors                    reciprocal lattice vectors
     4.135232243  0.000000000  0.000000000     0.241824386  0.000000000  0.000000000
     0.000000000  4.135232243  0.000000000     0.000000000  0.241824386  0.000000000
     0.000000000  0.000000000  8.515126265     0.000000000  0.000000000  0.117438071

  length of vectors
     4.135232243  4.135232243  8.515126265     0.241824386  0.241824386  0.117438071

  position of ions in fractional coordinates (direct lattice)
     0.000000000  0.500000000  0.282369511
     0.500000000  0.000000000  0.717630489
     0.000000000  0.000000000  0.000000000
     0.500000000  0.500000000  0.000000000
     0.000000000  0.500000000  0.641208584
     0.500000000  0.000000000  0.358791416

  ion indices of the primitive-cell ions
   primitive index   ion index
                 1           1
                 2           2
                 3           3
                 4           4
                 5           5
                 6           6

----------------------------------------------------------------------------------------

 
 
 KPOINTS: K-Spacing Value to Generate K-Mesh: 0.04

Automatic generation of k-mesh.
 Grid dimensions read from file:
 generate k-points for:   10   10    5

 Generating k-lattice:

  Cartesian coordinates                     Fractional coordinates (reciprocal lattice)
     0.024182439  0.000000000  0.000000000     0.100000000  0.000000000  0.000000000
     0.000000000  0.024182439  0.000000000     0.000000000  0.100000000  0.000000000
     0.000000000  0.000000000  0.023487614     0.000000000  0.000000000  0.200000000

  Length of vectors
     0.024182439  0.024182439  0.023487614

  Shift w.r.t. Gamma in fractional coordinates (k-lattice)
     0.000000000  0.000000000  0.000000000

 
 Subroutine IBZKPT returns following result:
 ===========================================
 
 Found    500 irreducible k-points:
 
 Following reciprocal coordinates:
            Coordinates               Weight
  0.000000  0.000000  0.000000      1.000000
  0.100000  0.000000  0.000000      1.000000
  0.200000  0.000000  0.000000      1.000000
  0.300000  0.000000  0.000000      1.000000
  0.400000  0.000000  0.000000      1.000000
  0.500000  0.000000  0.000000      1.000000
 -0.400000  0.000000  0.000000      1.000000
 -0.300000  0.000000  0.000000      1.000000
 -0.200000  0.000000  0.000000      1.000000
 -0.100000  0.000000  0.000000      1.000000
  0.000000  0.100000  0.000000      1.000000
  0.100000  0.100000  0.000000      1.000000
  0.200000  0.100000  0.000000      1.000000
  0.300000  0.100000  0.000000      1.000000
  0.400000  0.100000  0.000000      1.000000
  0.500000  0.100000  0.000000      1.000000
 -0.400000  0.100000  0.000000      1.000000
 -0.300000  0.100000  0.000000      1.000000
 -0.200000  0.100000  0.000000      1.000000
 -0.100000  0.100000  0.000000      1.000000
  0.000000  0.200000  0.000000      1.000000
  0.100000  0.200000  0.000000      1.000000
  0.200000  0.200000  0.000000      1.000000
  0.300000  0.200000  0.000000      1.000000
  0.400000  0.200000  0.000000      1.000000
  0.500000  0.200000  0.000000      1.000000
 -0.400000  0.200000  0.000000      1.000000
 -0.300000  0.200000  0.000000      1.000000
 -0.200000  0.200000  0.000000      1.000000
 -0.100000  0.200000  0.000000      1.000000
  0.000000  0.300000  0.000000      1.000000
  0.100000  0.300000  0.000000      1.000000
  0.200000  0.300000  0.000000      1.000000
  0.300000  0.300000  0.000000      1.000000
  0.400000  0.300000  0.000000      1.000000
  0.500000  0.300000  0.000000      1.000000
 -0.400000  0.300000  0.000000      1.000000
 -0.300000  0.300000  0.000000      1.000000
 -0.200000  0.300000  0.000000      1.000000
 -0.100000  0.300000  0.000000      1.000000
  0.000000  0.400000  0.000000      1.000000
  0.100000  0.400000  0.000000      1.000000
  0.200000  0.400000  0.000000      1.000000
  0.300000  0.400000  0.000000      1.000000
  0.400000  0.400000  0.000000      1.000000
  0.500000  0.400000  0.000000      1.000000
 -0.400000  0.400000  0.000000      1.000000
 -0.300000  0.400000  0.000000      1.000000
 -0.200000  0.400000  0.000000      1.000000
 -0.100000  0.400000  0.000000      1.000000
  0.000000  0.500000  0.000000      1.000000
  0.100000  0.500000  0.000000      1.000000
  0.200000  0.500000  0.000000      1.000000
  0.300000  0.500000  0.000000      1.000000
  0.400000  0.500000  0.000000      1.000000
  0.500000  0.500000  0.000000      1.000000
 -0.400000  0.500000  0.000000      1.000000
 -0.300000  0.500000  0.000000      1.000000
 -0.200000  0.500000  0.000000      1.000000
 -0.100000  0.500000  0.000000      1.000000
  0.000000 -0.400000  0.000000      1.000000
  0.100000 -0.400000  0.000000      1.000000
  0.200000 -0.400000  0.000000      1.000000
  0.300000 -0.400000  0.000000      1.000000
  0.400000 -0.400000  0.000000      1.000000
  0.500000 -0.400000  0.000000      1.000000
 -0.400000 -0.400000  0.000000      1.000000
 -0.300000 -0.400000  0.000000      1.000000
 -0.200000 -0.400000  0.000000      1.000000
 -0.100000 -0.400000  0.000000      1.000000
  0.000000 -0.300000  0.000000      1.000000
  0.100000 -0.300000  0.000000      1.000000
  0.200000 -0.300000  0.000000      1.000000
  0.300000 -0.300000  0.000000      1.000000
  0.400000 -0.300000  0.000000      1.000000
  0.500000 -0.300000  0.000000      1.000000
 -0.400000 -0.300000  0.000000      1.000000
 -0.300000 -0.300000  0.000000      1.000000
 -0.200000 -0.300000  0.000000      1.000000
 -0.100000 -0.300000  0.000000      1.000000
  0.000000 -0.200000  0.000000      1.000000
  0.100000 -0.200000  0.000000      1.000000
  0.200000 -0.200000  0.000000      1.000000
  0.300000 -0.200000  0.000000      1.000000
  0.400000 -0.200000  0.000000      1.000000
  0.500000 -0.200000  0.000000      1.000000
 -0.400000 -0.200000  0.000000      1.000000
 -0.300000 -0.200000  0.000000      1.000000
 -0.200000 -0.200000  0.000000      1.000000
 -0.100000 -0.200000  0.000000      1.000000
  0.000000 -0.100000  0.000000      1.000000
  0.100000 -0.100000  0.000000      1.000000
  0.200000 -0.100000  0.000000      1.000000
  0.300000 -0.100000  0.000000      1.000000
  0.400000 -0.100000  0.000000      1.000000
  0.500000 -0.100000  0.000000      1.000000
 -0.400000 -0.100000  0.000000      1.000000
 -0.300000 -0.100000  0.000000      1.000000
 -0.200000 -0.100000  0.000000      1.000000
 -0.100000 -0.100000  0.000000      1.000000
  0.000000  0.000000  0.200000      1.000000
  0.100000  0.000000  0.200000      1.000000
  0.200000  0.000000  0.200000      1.000000
  0.300000  0.000000  0.200000      1.000000
  0.400000  0.000000  0.200000      1.000000
  0.500000  0.000000  0.200000      1.000000
 -0.400000  0.000000  0.200000      1.000000
 -0.300000  0.000000  0.200000      1.000000
 -0.200000  0.000000  0.200000      1.000000
 -0.100000  0.000000  0.200000      1.000000
  0.000000  0.100000  0.200000      1.000000
  0.100000  0.100000  0.200000      1.000000
  0.200000  0.100000  0.200000      1.000000
  0.300000  0.100000  0.200000      1.000000
  0.400000  0.100000  0.200000      1.000000
  0.500000  0.100000  0.200000      1.000000
 -0.400000  0.100000  0.200000      1.000000
 -0.300000  0.100000  0.200000      1.000000
 -0.200000  0.100000  0.200000      1.000000
 -0.100000  0.100000  0.200000      1.000000
  0.000000  0.200000  0.200000      1.000000
  0.100000  0.200000  0.200000      1.000000
  0.200000  0.200000  0.200000      1.000000
  0.300000  0.200000  0.200000      1.000000
  0.400000  0.200000  0.200000      1.000000
  0.500000  0.200000  0.200000      1.000000
 -0.400000  0.200000  0.200000      1.000000
 -0.300000  0.200000  0.200000      1.000000
 -0.200000  0.200000  0.200000      1.000000
 -0.100000  0.200000  0.200000      1.000000
  0.000000  0.300000  0.200000      1.000000
  0.100000  0.300000  0.200000      1.000000
  0.200000  0.300000  0.200000      1.000000
  0.300000  0.300000  0.200000      1.000000
  0.400000  0.300000  0.200000      1.000000
  0.500000  0.300000  0.200000      1.000000
 -0.400000  0.300000  0.200000      1.000000
 -0.300000  0.300000  0.200000      1.000000
 -0.200000  0.300000  0.200000      1.000000
 -0.100000  0.300000  0.200000      1.000000
  0.000000  0.400000  0.200000      1.000000
  0.100000  0.400000  0.200000      1.000000
  0.200000  0.400000  0.200000      1.000000
  0.300000  0.400000  0.200000      1.000000
  0.400000  0.400000  0.200000      1.000000
  0.500000  0.400000  0.200000      1.000000
 -0.400000  0.400000  0.200000      1.000000
 -0.300000  0.400000  0.200000      1.000000
 -0.200000  0.400000  0.200000      1.000000
 -0.100000  0.400000  0.200000      1.000000
  0.000000  0.500000  0.200000      1.000000
  0.100000  0.500000  0.200000      1.000000
  0.200000  0.500000  0.200000      1.000000
  0.300000  0.500000  0.200000      1.000000
  0.400000  0.500000  0.200000      1.000000
  0.500000  0.500000  0.200000      1.000000
 -0.400000  0.500000  0.200000      1.000000
 -0.300000  0.500000  0.200000      1.000000
 -0.200000  0.500000  0.200000      1.000000
 -0.100000  0.500000  0.200000      1.000000
  0.000000 -0.400000  0.200000      1.000000
  0.100000 -0.400000  0.200000      1.000000
  0.200000 -0.400000  0.200000      1.000000
  0.300000 -0.400000  0.200000      1.000000
  0.400000 -0.400000  0.200000      1.000000
  0.500000 -0.400000  0.200000      1.000000
 -0.400000 -0.400000  0.200000      1.000000
 -0.300000 -0.400000  0.200000      1.000000
 -0.200000 -0.400000  0.200000      1.000000
 -0.100000 -0.400000  0.200000      1.000000
  0.000000 -0.300000  0.200000      1.000000
  0.100000 -0.300000  0.200000      1.000000
  0.200000 -0.300000  0.200000      1.000000
  0.300000 -0.300000  0.200000      1.000000
  0.400000 -0.300000  0.200000      1.000000
  0.500000 -0.300000  0.200000      1.000000
 -0.400000 -0.300000  0.200000      1.000000
 -0.300000 -0.300000  0.200000      1.000000
 -0.200000 -0.300000  0.200000      1.000000
 -0.100000 -0.300000  0.200000      1.000000
  0.000000 -0.200000  0.200000      1.000000
  0.100000 -0.200000  0.200000      1.000000
  0.200000 -0.200000  0.200000      1.000000
  0.300000 -0.200000  0.200000      1.000000
  0.400000 -0.200000  0.200000      1.000000
  0.500000 -0.200000  0.200000      1.000000
 -0.400000 -0.200000  0.200000      1.000000
 -0.300000 -0.200000  0.200000      1.000000
 -0.200000 -0.200000  0.200000      1.000000
 -0.100000 -0.200000  0.200000      1.000000
  0.000000 -0.100000  0.200000      1.000000
  0.100000 -0.100000  0.200000      1.000000
  0.200000 -0.100000  0.200000      1.000000
  0.300000 -0.100000  0.200000      1.000000
  0.400000 -0.100000  0.200000      1.000000
  0.500000 -0.100000  0.200000      1.000000
 -0.400000 -0.100000  0.200000      1.000000
 -0.300000 -0.100000  0.200000      1.000000
 -0.200000 -0.100000  0.200000      1.000000
 -0.100000 -0.100000  0.200000      1.000000
  0.000000  0.000000  0.400000      1.000000
  0.100000  0.000000  0.400000      1.000000
  0.200000  0.000000  0.400000      1.000000
  0.300000  0.000000  0.400000      1.000000
  0.400000  0.000000  0.400000      1.000000
  0.500000  0.000000  0.400000      1.000000
 -0.400000  0.000000  0.400000      1.000000
 -0.300000  0.000000  0.400000      1.000000
 -0.200000  0.000000  0.400000      1.000000
 -0.100000  0.000000  0.400000      1.000000
  0.000000  0.100000  0.400000      1.000000
  0.100000  0.100000  0.400000      1.000000
  0.200000  0.100000  0.400000      1.000000
  0.300000  0.100000  0.400000      1.000000
  0.400000  0.100000  0.400000      1.000000
  0.500000  0.100000  0.400000      1.000000
 -0.400000  0.100000  0.400000      1.000000
 -0.300000  0.100000  0.400000      1.000000
 -0.200000  0.100000  0.400000      1.000000
 -0.100000  0.100000  0.400000      1.000000
  0.000000  0.200000  0.400000      1.000000
  0.100000  0.200000  0.400000      1.000000
  0.200000  0.200000  0.400000      1.000000
  0.300000  0.200000  0.400000      1.000000
  0.400000  0.200000  0.400000      1.000000
  0.500000  0.200000  0.400000      1.000000
 -0.400000  0.200000  0.400000      1.000000
 -0.300000  0.200000  0.400000      1.000000
 -0.200000  0.200000  0.400000      1.000000
 -0.100000  0.200000  0.400000      1.000000
  0.000000  0.300000  0.400000      1.000000
  0.100000  0.300000  0.400000      1.000000
  0.200000  0.300000  0.400000      1.000000
  0.300000  0.300000  0.400000      1.000000
  0.400000  0.300000  0.400000      1.000000
  0.500000  0.300000  0.400000      1.000000
 -0.400000  0.300000  0.400000      1.000000
 -0.300000  0.300000  0.400000      1.000000
 -0.200000  0.300000  0.400000      1.000000
 -0.100000  0.300000  0.400000      1.000000
  0.000000  0.400000  0.400000      1.000000
  0.100000  0.400000  0.400000      1.000000
  0.200000  0.400000  0.400000      1.000000
  0.300000  0.400000  0.400000      1.000000
  0.400000  0.400000  0.400000      1.000000
  0.500000  0.400000  0.400000      1.000000
 -0.400000  0.400000  0.400000      1.000000
 -0.300000  0.400000  0.400000      1.000000
 -0.200000  0.400000  0.400000      1.000000
 -0.100000  0.400000  0.400000      1.000000
  0.000000  0.500000  0.400000      1.000000
  0.100000  0.500000  0.400000      1.000000
  0.200000  0.500000  0.400000      1.000000
  0.300000  0.500000  0.400000      1.000000
  0.400000  0.500000  0.400000      1.000000
  0.500000  0.500000  0.400000      1.000000
 -0.400000  0.500000  0.400000      1.000000
 -0.300000  0.500000  0.400000      1.000000
 -0.200000  0.500000  0.400000      1.000000
 -0.100000  0.500000  0.400000      1.000000
  0.000000 -0.400000  0.400000      1.000000
  0.100000 -0.400000  0.400000      1.000000
  0.200000 -0.400000  0.400000      1.000000
  0.300000 -0.400000  0.400000      1.000000
  0.400000 -0.400000  0.400000      1.000000
  0.500000 -0.400000  0.400000      1.000000
 -0.400000 -0.400000  0.400000      1.000000
 -0.300000 -0.400000  0.400000      1.000000
 -0.200000 -0.400000  0.400000      1.000000
 -0.100000 -0.400000  0.400000      1.000000
  0.000000 -0.300000  0.400000      1.000000
  0.100000 -0.300000  0.400000      1.000000
  0.200000 -0.300000  0.400000      1.000000
  0.300000 -0.300000  0.400000      1.000000
  0.400000 -0.300000  0.400000      1.000000
  0.500000 -0.300000  0.400000      1.000000
 -0.400000 -0.300000  0.400000      1.000000
 -0.300000 -0.300000  0.400000      1.000000
 -0.200000 -0.300000  0.400000      1.000000
 -0.100000 -0.300000  0.400000      1.000000
  0.000000 -0.200000  0.400000      1.000000
  0.100000 -0.200000  0.400000      1.000000
  0.200000 -0.200000  0.400000      1.000000
  0.300000 -0.200000  0.400000      1.000000
  0.400000 -0.200000  0.400000      1.000000
  0.500000 -0.200000  0.400000      1.000000
 -0.400000 -0.200000  0.400000      1.000000
 -0.300000 -0.200000  0.400000      1.000000
 -0.200000 -0.200000  0.400000      1.000000
 -0.100000 -0.200000  0.400000      1.000000
  0.000000 -0.100000  0.400000      1.000000
  0.100000 -0.100000  0.400000      1.000000
  0.200000 -0.100000  0.400000      1.000000
  0.300000 -0.100000  0.400000      1.000000
  0.400000 -0.100000  0.400000      1.000000
  0.500000 -0.100000  0.400000      1.000000
 -0.400000 -0.100000  0.400000      1.000000
 -0.300000 -0.100000  0.400000      1.000000
 -0.200000 -0.100000  0.400000      1.000000
 -0.100000 -0.100000  0.400000      1.000000
  0.000000  0.000000 -0.400000      1.000000
  0.100000  0.000000 -0.400000      1.000000
  0.200000  0.000000 -0.400000      1.000000
  0.300000  0.000000 -0.400000      1.000000
  0.400000  0.000000 -0.400000      1.000000
  0.500000  0.000000 -0.400000      1.000000
 -0.400000  0.000000 -0.400000      1.000000
 -0.300000  0.000000 -0.400000      1.000000
 -0.200000  0.000000 -0.400000      1.000000
 -0.100000  0.000000 -0.400000      1.000000
  0.000000  0.100000 -0.400000      1.000000
  0.100000  0.100000 -0.400000      1.000000
  0.200000  0.100000 -0.400000      1.000000
  0.300000  0.100000 -0.400000      1.000000
  0.400000  0.100000 -0.400000      1.000000
  0.500000  0.100000 -0.400000      1.000000
 -0.400000  0.100000 -0.400000      1.000000
 -0.300000  0.100000 -0.400000      1.000000
 -0.200000  0.100000 -0.400000      1.000000
 -0.100000  0.100000 -0.400000      1.000000
  0.000000  0.200000 -0.400000      1.000000
  0.100000  0.200000 -0.400000      1.000000
  0.200000  0.200000 -0.400000      1.000000
  0.300000  0.200000 -0.400000      1.000000
  0.400000  0.200000 -0.400000      1.000000
  0.500000  0.200000 -0.400000      1.000000
 -0.400000  0.200000 -0.400000      1.000000
 -0.300000  0.200000 -0.400000      1.000000
 -0.200000  0.200000 -0.400000      1.000000
 -0.100000  0.200000 -0.400000      1.000000
  0.000000  0.300000 -0.400000      1.000000
  0.100000  0.300000 -0.400000      1.000000
  0.200000  0.300000 -0.400000      1.000000
  0.300000  0.300000 -0.400000      1.000000
  0.400000  0.300000 -0.400000      1.000000
  0.500000  0.300000 -0.400000      1.000000
 -0.400000  0.300000 -0.400000      1.000000
 -0.300000  0.300000 -0.400000      1.000000
 -0.200000  0.300000 -0.400000      1.000000
 -0.100000  0.300000 -0.400000      1.000000
  0.000000  0.400000 -0.400000      1.000000
  0.100000  0.400000 -0.400000      1.000000
  0.200000  0.400000 -0.400000      1.000000
  0.300000  0.400000 -0.400000      1.000000
  0.400000  0.400000 -0.400000      1.000000
  0.500000  0.400000 -0.400000      1.000000
 -0.400000  0.400000 -0.400000      1.000000
 -0.300000  0.400000 -0.400000      1.000000
 -0.200000  0.400000 -0.400000      1.000000
 -0.100000  0.400000 -0.400000      1.000000
  0.000000  0.500000 -0.400000      1.000000
  0.100000  0.500000 -0.400000      1.000000
  0.200000  0.500000 -0.400000      1.000000
  0.300000  0.500000 -0.400000      1.000000
  0.400000  0.500000 -0.400000      1.000000
  0.500000  0.500000 -0.400000      1.000000
 -0.400000  0.500000 -0.400000      1.000000
 -0.300000  0.500000 -0.400000      1.000000
 -0.200000  0.500000 -0.400000      1.000000
 -0.100000  0.500000 -0.400000      1.000000
  0.000000 -0.400000 -0.400000      1.000000
  0.100000 -0.400000 -0.400000      1.000000
  0.200000 -0.400000 -0.400000      1.000000
  0.300000 -0.400000 -0.400000      1.000000
  0.400000 -0.400000 -0.400000      1.000000
  0.500000 -0.400000 -0.400000      1.000000
 -0.400000 -0.400000 -0.400000      1.000000
 -0.300000 -0.400000 -0.400000      1.000000
 -0.200000 -0.400000 -0.400000      1.000000
 -0.100000 -0.400000 -0.400000      1.000000
  0.000000 -0.300000 -0.400000      1.000000
  0.100000 -0.300000 -0.400000      1.000000
  0.200000 -0.300000 -0.400000      1.000000
  0.300000 -0.300000 -0.400000      1.000000
  0.400000 -0.300000 -0.400000      1.000000
  0.500000 -0.300000 -0.400000      1.000000
 -0.400000 -0.300000 -0.400000      1.000000
 -0.300000 -0.300000 -0.400000      1.000000
 -0.200000 -0.300000 -0.400000      1.000000
 -0.100000 -0.300000 -0.400000      1.000000
  0.000000 -0.200000 -0.400000      1.000000
  0.100000 -0.200000 -0.400000      1.000000
  0.200000 -0.200000 -0.400000      1.000000
  0.300000 -0.200000 -0.400000      1.000000
  0.400000 -0.200000 -0.400000      1.000000
  0.500000 -0.200000 -0.400000      1.000000
 -0.400000 -0.200000 -0.400000      1.000000
 -0.300000 -0.200000 -0.400000      1.000000
 -0.200000 -0.200000 -0.400000      1.000000
 -0.100000 -0.200000 -0.400000      1.000000
  0.000000 -0.100000 -0.400000      1.000000
  0.100000 -0.100000 -0.400000      1.000000
  0.200000 -0.100000 -0.400000      1.000000
  0.300000 -0.100000 -0.400000      1.000000
  0.400000 -0.100000 -0.400000      1.000000
  0.500000 -0.100000 -0.400000      1.000000
 -0.400000 -0.100000 -0.400000      1.000000
 -0.300000 -0.100000 -0.400000      1.000000
 -0.200000 -0.100000 -0.400000      1.000000
 -0.100000 -0.100000 -0.400000      1.000000
  0.000000  0.000000 -0.200000      1.000000
  0.100000  0.000000 -0.200000      1.000000
  0.200000  0.000000 -0.200000      1.000000
  0.300000  0.000000 -0.200000      1.000000
  0.400000  0.000000 -0.200000      1.000000
  0.500000  0.000000 -0.200000      1.000000
 -0.400000  0.000000 -0.200000      1.000000
 -0.300000  0.000000 -0.200000      1.000000
 -0.200000  0.000000 -0.200000      1.000000
 -0.100000  0.000000 -0.200000      1.000000
  0.000000  0.100000 -0.200000      1.000000
  0.100000  0.100000 -0.200000      1.000000
  0.200000  0.100000 -0.200000      1.000000
  0.300000  0.100000 -0.200000      1.000000
  0.400000  0.100000 -0.200000      1.000000
  0.500000  0.100000 -0.200000      1.000000
 -0.400000  0.100000 -0.200000      1.000000
 -0.300000  0.100000 -0.200000      1.000000
 -0.200000  0.100000 -0.200000      1.000000
 -0.100000  0.100000 -0.200000      1.000000
  0.000000  0.200000 -0.200000      1.000000
  0.100000  0.200000 -0.200000      1.000000
  0.200000  0.200000 -0.200000      1.000000
  0.300000  0.200000 -0.200000      1.000000
  0.400000  0.200000 -0.200000      1.000000
  0.500000  0.200000 -0.200000      1.000000
 -0.400000  0.200000 -0.200000      1.000000
 -0.300000  0.200000 -0.200000      1.000000
 -0.200000  0.200000 -0.200000      1.000000
 -0.100000  0.200000 -0.200000      1.000000
  0.000000  0.300000 -0.200000      1.000000
  0.100000  0.300000 -0.200000      1.000000
  0.200000  0.300000 -0.200000      1.000000
  0.300000  0.300000 -0.200000      1.000000
  0.400000  0.300000 -0.200000      1.000000
  0.500000  0.300000 -0.200000      1.000000
 -0.400000  0.300000 -0.200000      1.000000
 -0.300000  0.300000 -0.200000      1.000000
 -0.200000  0.300000 -0.200000      1.000000
 -0.100000  0.300000 -0.200000      1.000000
  0.000000  0.400000 -0.200000      1.000000
  0.100000  0.400000 -0.200000      1.000000
  0.200000  0.400000 -0.200000      1.000000
  0.300000  0.400000 -0.200000      1.000000
  0.400000  0.400000 -0.200000      1.000000
  0.500000  0.400000 -0.200000      1.000000
 -0.400000  0.400000 -0.200000      1.000000
 -0.300000  0.400000 -0.200000      1.000000
 -0.200000  0.400000 -0.200000      1.000000
 -0.100000  0.400000 -0.200000      1.000000
  0.000000  0.500000 -0.200000      1.000000
  0.100000  0.500000 -0.200000      1.000000
  0.200000  0.500000 -0.200000      1.000000
  0.300000  0.500000 -0.200000      1.000000
  0.400000  0.500000 -0.200000      1.000000
  0.500000  0.500000 -0.200000      1.000000
 -0.400000  0.500000 -0.200000      1.000000
 -0.300000  0.500000 -0.200000      1.000000
 -0.200000  0.500000 -0.200000      1.000000
 -0.100000  0.500000 -0.200000      1.000000
  0.000000 -0.400000 -0.200000      1.000000
  0.100000 -0.400000 -0.200000      1.000000
  0.200000 -0.400000 -0.200000      1.000000
  0.300000 -0.400000 -0.200000      1.000000
  0.400000 -0.400000 -0.200000      1.000000
  0.500000 -0.400000 -0.200000      1.000000
 -0.400000 -0.400000 -0.200000      1.000000
 -0.300000 -0.400000 -0.200000      1.000000
 -0.200000 -0.400000 -0.200000      1.000000
 -0.100000 -0.400000 -0.200000      1.000000
  0.000000 -0.300000 -0.200000      1.000000
  0.100000 -0.300000 -0.200000      1.000000
  0.200000 -0.300000 -0.200000      1.000000
  0.300000 -0.300000 -0.200000      1.000000
  0.400000 -0.300000 -0.200000      1.000000
  0.500000 -0.300000 -0.200000      1.000000
 -0.400000 -0.300000 -0.200000      1.000000
 -0.300000 -0.300000 -0.200000      1.000000
 -0.200000 -0.300000 -0.200000      1.000000
 -0.100000 -0.300000 -0.200000      1.000000
  0.000000 -0.200000 -0.200000      1.000000
  0.100000 -0.200000 -0.200000      1.000000
  0.200000 -0.200000 -0.200000      1.000000
  0.300000 -0.200000 -0.200000      1.000000
  0.400000 -0.200000 -0.200000      1.000000
  0.500000 -0.200000 -0.200000      1.000000
 -0.400000 -0.200000 -0.200000      1.000000
 -0.300000 -0.200000 -0.200000      1.000000
 -0.200000 -0.200000 -0.200000      1.000000
 -0.100000 -0.200000 -0.200000      1.000000
  0.000000 -0.100000 -0.200000      1.000000
  0.100000 -0.100000 -0.200000      1.000000
  0.200000 -0.100000 -0.200000      1.000000
  0.300000 -0.100000 -0.200000      1.000000
  0.400000 -0.100000 -0.200000      1.000000
  0.500000 -0.100000 -0.200000      1.000000
 -0.400000 -0.100000 -0.200000      1.000000
 -0.300000 -0.100000 -0.200000      1.000000
 -0.200000 -0.100000 -0.200000      1.000000
 -0.100000 -0.100000 -0.200000      1.000000
 
 Following cartesian coordinates:
            Coordinates               Weight
  0.000000  0.000000  0.000000      1.000000
  0.024182  0.000000  0.000000      1.000000
  0.048365  0.000000  0.000000      1.000000
  0.072547  0.000000  0.000000      1.000000
  0.096730  0.000000  0.000000      1.000000
  0.120912  0.000000  0.000000      1.000000
 -0.096730  0.000000  0.000000      1.000000
 -0.072547  0.000000  0.000000      1.000000
 -0.048365  0.000000  0.000000      1.000000
 -0.024182  0.000000  0.000000      1.000000
  0.000000  0.024182  0.000000      1.000000
  0.024182  0.024182  0.000000      1.000000
  0.048365  0.024182  0.000000      1.000000
  0.072547  0.024182  0.000000      1.000000
  0.096730  0.024182  0.000000      1.000000
  0.120912  0.024182  0.000000      1.000000
 -0.096730  0.024182  0.000000      1.000000
 -0.072547  0.024182  0.000000      1.000000
 -0.048365  0.024182  0.000000      1.000000
 -0.024182  0.024182  0.000000      1.000000
  0.000000  0.048365  0.000000      1.000000
  0.024182  0.048365  0.000000      1.000000
  0.048365  0.048365  0.000000      1.000000
  0.072547  0.048365  0.000000      1.000000
  0.096730  0.048365  0.000000      1.000000
  0.120912  0.048365  0.000000      1.000000
 -0.096730  0.048365  0.000000      1.000000
 -0.072547  0.048365  0.000000      1.000000
 -0.048365  0.048365  0.000000      1.000000
 -0.024182  0.048365  0.000000      1.000000
  0.000000  0.072547  0.000000      1.000000
  0.024182  0.072547  0.000000      1.000000
  0.048365  0.072547  0.000000      1.000000
  0.072547  0.072547  0.000000      1.000000
  0.096730  0.072547  0.000000      1.000000
  0.120912  0.072547  0.000000      1.000000
 -0.096730  0.072547  0.000000      1.000000
 -0.072547  0.072547  0.000000      1.000000
 -0.048365  0.072547  0.000000      1.000000
 -0.024182  0.072547  0.000000      1.000000
  0.000000  0.096730  0.000000      1.000000
  0.024182  0.096730  0.000000      1.000000
  0.048365  0.096730  0.000000      1.000000
  0.072547  0.096730  0.000000      1.000000
  0.096730  0.096730  0.000000      1.000000
  0.120912  0.096730  0.000000      1.000000
 -0.096730  0.096730  0.000000      1.000000
 -0.072547  0.096730  0.000000      1.000000
 -0.048365  0.096730  0.000000      1.000000
 -0.024182  0.096730  0.000000      1.000000
  0.000000  0.120912  0.000000      1.000000
  0.024182  0.120912  0.000000      1.000000
  0.048365  0.120912  0.000000      1.000000
  0.072547  0.120912  0.000000      1.000000
  0.096730  0.120912  0.000000      1.000000
  0.120912  0.120912  0.000000      1.000000
 -0.096730  0.120912  0.000000      1.000000
 -0.072547  0.120912  0.000000      1.000000
 -0.048365  0.120912  0.000000      1.000000
 -0.024182  0.120912  0.000000      1.000000
  0.000000 -0.096730  0.000000      1.000000
  0.024182 -0.096730  0.000000      1.000000
  0.048365 -0.096730  0.000000      1.000000
  0.072547 -0.096730  0.000000      1.000000
  0.096730 -0.096730  0.000000      1.000000
  0.120912 -0.096730  0.000000      1.000000
 -0.096730 -0.096730  0.000000      1.000000
 -0.072547 -0.096730  0.000000      1.000000
 -0.048365 -0.096730  0.000000      1.000000
 -0.024182 -0.096730  0.000000      1.000000
  0.000000 -0.072547  0.000000      1.000000
  0.024182 -0.072547  0.000000      1.000000
  0.048365 -0.072547  0.000000      1.000000
  0.072547 -0.072547  0.000000      1.000000
  0.096730 -0.072547  0.000000      1.000000
  0.120912 -0.072547  0.000000      1.000000
 -0.096730 -0.072547  0.000000      1.000000
 -0.072547 -0.072547  0.000000      1.000000
 -0.048365 -0.072547  0.000000      1.000000
 -0.024182 -0.072547  0.000000      1.000000
  0.000000 -0.048365  0.000000      1.000000
  0.024182 -0.048365  0.000000      1.000000
  0.048365 -0.048365  0.000000      1.000000
  0.072547 -0.048365  0.000000      1.000000
  0.096730 -0.048365  0.000000      1.000000
  0.120912 -0.048365  0.000000      1.000000
 -0.096730 -0.048365  0.000000      1.000000
 -0.072547 -0.048365  0.000000      1.000000
 -0.048365 -0.048365  0.000000      1.000000
 -0.024182 -0.048365  0.000000      1.000000
  0.000000 -0.024182  0.000000      1.000000
  0.024182 -0.024182  0.000000      1.000000
  0.048365 -0.024182  0.000000      1.000000
  0.072547 -0.024182  0.000000      1.000000
  0.096730 -0.024182  0.000000      1.000000
  0.120912 -0.024182  0.000000      1.000000
 -0.096730 -0.024182  0.000000      1.000000
 -0.072547 -0.024182  0.000000      1.000000
 -0.048365 -0.024182  0.000000      1.000000
 -0.024182 -0.024182  0.000000      1.000000
  0.000000  0.000000  0.023488      1.000000
  0.024182  0.000000  0.023488      1.000000
  0.048365  0.000000  0.023488      1.000000
  0.072547  0.000000  0.023488      1.000000
  0.096730  0.000000  0.023488      1.000000
  0.120912  0.000000  0.023488      1.000000
 -0.096730  0.000000  0.023488      1.000000
 -0.072547  0.000000  0.023488      1.000000
 -0.048365  0.000000  0.023488      1.000000
 -0.024182  0.000000  0.023488      1.000000
  0.000000  0.024182  0.023488      1.000000
  0.024182  0.024182  0.023488      1.000000
  0.048365  0.024182  0.023488      1.000000
  0.072547  0.024182  0.023488      1.000000
  0.096730  0.024182  0.023488      1.000000
  0.120912  0.024182  0.023488      1.000000
 -0.096730  0.024182  0.023488      1.000000
 -0.072547  0.024182  0.023488      1.000000
 -0.048365  0.024182  0.023488      1.000000
 -0.024182  0.024182  0.023488      1.000000
  0.000000  0.048365  0.023488      1.000000
  0.024182  0.048365  0.023488      1.000000
  0.048365  0.048365  0.023488      1.000000
  0.072547  0.048365  0.023488      1.000000
  0.096730  0.048365  0.023488      1.000000
  0.120912  0.048365  0.023488      1.000000
 -0.096730  0.048365  0.023488      1.000000
 -0.072547  0.048365  0.023488      1.000000
 -0.048365  0.048365  0.023488      1.000000
 -0.024182  0.048365  0.023488      1.000000
  0.000000  0.072547  0.023488      1.000000
  0.024182  0.072547  0.023488      1.000000
  0.048365  0.072547  0.023488      1.000000
  0.072547  0.072547  0.023488      1.000000
  0.096730  0.072547  0.023488      1.000000
  0.120912  0.072547  0.023488      1.000000
 -0.096730  0.072547  0.023488      1.000000
 -0.072547  0.072547  0.023488      1.000000
 -0.048365  0.072547  0.023488      1.000000
 -0.024182  0.072547  0.023488      1.000000
  0.000000  0.096730  0.023488      1.000000
  0.024182  0.096730  0.023488      1.000000
  0.048365  0.096730  0.023488      1.000000
  0.072547  0.096730  0.023488      1.000000
  0.096730  0.096730  0.023488      1.000000
  0.120912  0.096730  0.023488      1.000000
 -0.096730  0.096730  0.023488      1.000000
 -0.072547  0.096730  0.023488      1.000000
 -0.048365  0.096730  0.023488      1.000000
 -0.024182  0.096730  0.023488      1.000000
  0.000000  0.120912  0.023488      1.000000
  0.024182  0.120912  0.023488      1.000000
  0.048365  0.120912  0.023488      1.000000
  0.072547  0.120912  0.023488      1.000000
  0.096730  0.120912  0.023488      1.000000
  0.120912  0.120912  0.023488      1.000000
 -0.096730  0.120912  0.023488      1.000000
 -0.072547  0.120912  0.023488      1.000000
 -0.048365  0.120912  0.023488      1.000000
 -0.024182  0.120912  0.023488      1.000000
  0.000000 -0.096730  0.023488      1.000000
  0.024182 -0.096730  0.023488      1.000000
  0.048365 -0.096730  0.023488      1.000000
  0.072547 -0.096730  0.023488      1.000000
  0.096730 -0.096730  0.023488      1.000000
  0.120912 -0.096730  0.023488      1.000000
 -0.096730 -0.096730  0.023488      1.000000
 -0.072547 -0.096730  0.023488      1.000000
 -0.048365 -0.096730  0.023488      1.000000
 -0.024182 -0.096730  0.023488      1.000000
  0.000000 -0.072547  0.023488      1.000000
  0.024182 -0.072547  0.023488      1.000000
  0.048365 -0.072547  0.023488      1.000000
  0.072547 -0.072547  0.023488      1.000000
  0.096730 -0.072547  0.023488      1.000000
  0.120912 -0.072547  0.023488      1.000000
 -0.096730 -0.072547  0.023488      1.000000
 -0.072547 -0.072547  0.023488      1.000000
 -0.048365 -0.072547  0.023488      1.000000
 -0.024182 -0.072547  0.023488      1.000000
  0.000000 -0.048365  0.023488      1.000000
  0.024182 -0.048365  0.023488      1.000000
  0.048365 -0.048365  0.023488      1.000000
  0.072547 -0.048365  0.023488      1.000000
  0.096730 -0.048365  0.023488      1.000000
  0.120912 -0.048365  0.023488      1.000000
 -0.096730 -0.048365  0.023488      1.000000
 -0.072547 -0.048365  0.023488      1.000000
 -0.048365 -0.048365  0.023488      1.000000
 -0.024182 -0.048365  0.023488      1.000000
  0.000000 -0.024182  0.023488      1.000000
  0.024182 -0.024182  0.023488      1.000000
  0.048365 -0.024182  0.023488      1.000000
  0.072547 -0.024182  0.023488      1.000000
  0.096730 -0.024182  0.023488      1.000000
  0.120912 -0.024182  0.023488      1.000000
 -0.096730 -0.024182  0.023488      1.000000
 -0.072547 -0.024182  0.023488      1.000000
 -0.048365 -0.024182  0.023488      1.000000
 -0.024182 -0.024182  0.023488      1.000000
  0.000000  0.000000  0.046975      1.000000
  0.024182  0.000000  0.046975      1.000000
  0.048365  0.000000  0.046975      1.000000
  0.072547  0.000000  0.046975      1.000000
  0.096730  0.000000  0.046975      1.000000
  0.120912  0.000000  0.046975      1.000000
 -0.096730  0.000000  0.046975      1.000000
 -0.072547  0.000000  0.046975      1.000000
 -0.048365  0.000000  0.046975      1.000000
 -0.024182  0.000000  0.046975      1.000000
  0.000000  0.024182  0.046975      1.000000
  0.024182  0.024182  0.046975      1.000000
  0.048365  0.024182  0.046975      1.000000
  0.072547  0.024182  0.046975      1.000000
  0.096730  0.024182  0.046975      1.000000
  0.120912  0.024182  0.046975      1.000000
 -0.096730  0.024182  0.046975      1.000000
 -0.072547  0.024182  0.046975      1.000000
 -0.048365  0.024182  0.046975      1.000000
 -0.024182  0.024182  0.046975      1.000000
  0.000000  0.048365  0.046975      1.000000
  0.024182  0.048365  0.046975      1.000000
  0.048365  0.048365  0.046975      1.000000
  0.072547  0.048365  0.046975      1.000000
  0.096730  0.048365  0.046975      1.000000
  0.120912  0.048365  0.046975      1.000000
 -0.096730  0.048365  0.046975      1.000000
 -0.072547  0.048365  0.046975      1.000000
 -0.048365  0.048365  0.046975      1.000000
 -0.024182  0.048365  0.046975      1.000000
  0.000000  0.072547  0.046975      1.000000
  0.024182  0.072547  0.046975      1.000000
  0.048365  0.072547  0.046975      1.000000
  0.072547  0.072547  0.046975      1.000000
  0.096730  0.072547  0.046975      1.000000
  0.120912  0.072547  0.046975      1.000000
 -0.096730  0.072547  0.046975      1.000000
 -0.072547  0.072547  0.046975      1.000000
 -0.048365  0.072547  0.046975      1.000000
 -0.024182  0.072547  0.046975      1.000000
  0.000000  0.096730  0.046975      1.000000
  0.024182  0.096730  0.046975      1.000000
  0.048365  0.096730  0.046975      1.000000
  0.072547  0.096730  0.046975      1.000000
  0.096730  0.096730  0.046975      1.000000
  0.120912  0.096730  0.046975      1.000000
 -0.096730  0.096730  0.046975      1.000000
 -0.072547  0.096730  0.046975      1.000000
 -0.048365  0.096730  0.046975      1.000000
 -0.024182  0.096730  0.046975      1.000000
  0.000000  0.120912  0.046975      1.000000
  0.024182  0.120912  0.046975      1.000000
  0.048365  0.120912  0.046975      1.000000
  0.072547  0.120912  0.046975      1.000000
  0.096730  0.120912  0.046975      1.000000
  0.120912  0.120912  0.046975      1.000000
 -0.096730  0.120912  0.046975      1.000000
 -0.072547  0.120912  0.046975      1.000000
 -0.048365  0.120912  0.046975      1.000000
 -0.024182  0.120912  0.046975      1.000000
  0.000000 -0.096730  0.046975      1.000000
  0.024182 -0.096730  0.046975      1.000000
  0.048365 -0.096730  0.046975      1.000000
  0.072547 -0.096730  0.046975      1.000000
  0.096730 -0.096730  0.046975      1.000000
  0.120912 -0.096730  0.046975      1.000000
 -0.096730 -0.096730  0.046975      1.000000
 -0.072547 -0.096730  0.046975      1.000000
 -0.048365 -0.096730  0.046975      1.000000
 -0.024182 -0.096730  0.046975      1.000000
  0.000000 -0.072547  0.046975      1.000000
  0.024182 -0.072547  0.046975      1.000000
  0.048365 -0.072547  0.046975      1.000000
  0.072547 -0.072547  0.046975      1.000000
  0.096730 -0.072547  0.046975      1.000000
  0.120912 -0.072547  0.046975      1.000000
 -0.096730 -0.072547  0.046975      1.000000
 -0.072547 -0.072547  0.046975      1.000000
 -0.048365 -0.072547  0.046975      1.000000
 -0.024182 -0.072547  0.046975      1.000000
  0.000000 -0.048365  0.046975      1.000000
  0.024182 -0.048365  0.046975      1.000000
  0.048365 -0.048365  0.046975      1.000000
  0.072547 -0.048365  0.046975      1.000000
  0.096730 -0.048365  0.046975      1.000000
  0.120912 -0.048365  0.046975      1.000000
 -0.096730 -0.048365  0.046975      1.000000
 -0.072547 -0.048365  0.046975      1.000000
 -0.048365 -0.048365  0.046975      1.000000
 -0.024182 -0.048365  0.046975      1.000000
  0.000000 -0.024182  0.046975      1.000000
  0.024182 -0.024182  0.046975      1.000000
  0.048365 -0.024182  0.046975      1.000000
  0.072547 -0.024182  0.046975      1.000000
  0.096730 -0.024182  0.046975      1.000000
  0.120912 -0.024182  0.046975      1.000000
 -0.096730 -0.024182  0.046975      1.000000
 -0.072547 -0.024182  0.046975      1.000000
 -0.048365 -0.024182  0.046975      1.000000
 -0.024182 -0.024182  0.046975      1.000000
  0.000000  0.000000 -0.046975      1.000000
  0.024182  0.000000 -0.046975      1.000000
  0.048365  0.000000 -0.046975      1.000000
  0.072547  0.000000 -0.046975      1.000000
  0.096730  0.000000 -0.046975      1.000000
  0.120912  0.000000 -0.046975      1.000000
 -0.096730  0.000000 -0.046975      1.000000
 -0.072547  0.000000 -0.046975      1.000000
 -0.048365  0.000000 -0.046975      1.000000
 -0.024182  0.000000 -0.046975      1.000000
  0.000000  0.024182 -0.046975      1.000000
  0.024182  0.024182 -0.046975      1.000000
  0.048365  0.024182 -0.046975      1.000000
  0.072547  0.024182 -0.046975      1.000000
  0.096730  0.024182 -0.046975      1.000000
  0.120912  0.024182 -0.046975      1.000000
 -0.096730  0.024182 -0.046975      1.000000
 -0.072547  0.024182 -0.046975      1.000000
 -0.048365  0.024182 -0.046975      1.000000
 -0.024182  0.024182 -0.046975      1.000000
  0.000000  0.048365 -0.046975      1.000000
  0.024182  0.048365 -0.046975      1.000000
  0.048365  0.048365 -0.046975      1.000000
  0.072547  0.048365 -0.046975      1.000000
  0.096730  0.048365 -0.046975      1.000000
  0.120912  0.048365 -0.046975      1.000000
 -0.096730  0.048365 -0.046975      1.000000
 -0.072547  0.048365 -0.046975      1.000000
 -0.048365  0.048365 -0.046975      1.000000
 -0.024182  0.048365 -0.046975      1.000000
  0.000000  0.072547 -0.046975      1.000000
  0.024182  0.072547 -0.046975      1.000000
  0.048365  0.072547 -0.046975      1.000000
  0.072547  0.072547 -0.046975      1.000000
  0.096730  0.072547 -0.046975      1.000000
  0.120912  0.072547 -0.046975      1.000000
 -0.096730  0.072547 -0.046975      1.000000
 -0.072547  0.072547 -0.046975      1.000000
 -0.048365  0.072547 -0.046975      1.000000
 -0.024182  0.072547 -0.046975      1.000000
  0.000000  0.096730 -0.046975      1.000000
  0.024182  0.096730 -0.046975      1.000000
  0.048365  0.096730 -0.046975      1.000000
  0.072547  0.096730 -0.046975      1.000000
  0.096730  0.096730 -0.046975      1.000000
  0.120912  0.096730 -0.046975      1.000000
 -0.096730  0.096730 -0.046975      1.000000
 -0.072547  0.096730 -0.046975      1.000000
 -0.048365  0.096730 -0.046975      1.000000
 -0.024182  0.096730 -0.046975      1.000000
  0.000000  0.120912 -0.046975      1.000000
  0.024182  0.120912 -0.046975      1.000000
  0.048365  0.120912 -0.046975      1.000000
  0.072547  0.120912 -0.046975      1.000000
  0.096730  0.120912 -0.046975      1.000000
  0.120912  0.120912 -0.046975      1.000000
 -0.096730  0.120912 -0.046975      1.000000
 -0.072547  0.120912 -0.046975      1.000000
 -0.048365  0.120912 -0.046975      1.000000
 -0.024182  0.120912 -0.046975      1.000000
  0.000000 -0.096730 -0.046975      1.000000
  0.024182 -0.096730 -0.046975      1.000000
  0.048365 -0.096730 -0.046975      1.000000
  0.072547 -0.096730 -0.046975      1.000000
  0.096730 -0.096730 -0.046975      1.000000
  0.120912 -0.096730 -0.046975      1.000000
 -0.096730 -0.096730 -0.046975      1.000000
 -0.072547 -0.096730 -0.046975      1.000000
 -0.048365 -0.096730 -0.046975      1.000000
 -0.024182 -0.096730 -0.046975      1.000000
  0.000000 -0.072547 -0.046975      1.000000
  0.024182 -0.072547 -0.046975      1.000000
  0.048365 -0.072547 -0.046975      1.000000
  0.072547 -0.072547 -0.046975      1.000000
  0.096730 -0.072547 -0.046975      1.000000
  0.120912 -0.072547 -0.046975      1.000000
 -0.096730 -0.072547 -0.046975      1.000000
 -0.072547 -0.072547 -0.046975      1.000000
 -0.048365 -0.072547 -0.046975      1.000000
 -0.024182 -0.072547 -0.046975      1.000000
  0.000000 -0.048365 -0.046975      1.000000
  0.024182 -0.048365 -0.046975      1.000000
  0.048365 -0.048365 -0.046975      1.000000
  0.072547 -0.048365 -0.046975      1.000000
  0.096730 -0.048365 -0.046975      1.000000
  0.120912 -0.048365 -0.046975      1.000000
 -0.096730 -0.048365 -0.046975      1.000000
 -0.072547 -0.048365 -0.046975      1.000000
 -0.048365 -0.048365 -0.046975      1.000000
 -0.024182 -0.048365 -0.046975      1.000000
  0.000000 -0.024182 -0.046975      1.000000
  0.024182 -0.024182 -0.046975      1.000000
  0.048365 -0.024182 -0.046975      1.000000
  0.072547 -0.024182 -0.046975      1.000000
  0.096730 -0.024182 -0.046975      1.000000
  0.120912 -0.024182 -0.046975      1.000000
 -0.096730 -0.024182 -0.046975      1.000000
 -0.072547 -0.024182 -0.046975      1.000000
 -0.048365 -0.024182 -0.046975      1.000000
 -0.024182 -0.024182 -0.046975      1.000000
  0.000000  0.000000 -0.023488      1.000000
  0.024182  0.000000 -0.023488      1.000000
  0.048365  0.000000 -0.023488      1.000000
  0.072547  0.000000 -0.023488      1.000000
  0.096730  0.000000 -0.023488      1.000000
  0.120912  0.000000 -0.023488      1.000000
 -0.096730  0.000000 -0.023488      1.000000
 -0.072547  0.000000 -0.023488      1.000000
 -0.048365  0.000000 -0.023488      1.000000
 -0.024182  0.000000 -0.023488      1.000000
  0.000000  0.024182 -0.023488      1.000000
  0.024182  0.024182 -0.023488      1.000000
  0.048365  0.024182 -0.023488      1.000000
  0.072547  0.024182 -0.023488      1.000000
  0.096730  0.024182 -0.023488      1.000000
  0.120912  0.024182 -0.023488      1.000000
 -0.096730  0.024182 -0.023488      1.000000
 -0.072547  0.024182 -0.023488      1.000000
 -0.048365  0.024182 -0.023488      1.000000
 -0.024182  0.024182 -0.023488      1.000000
  0.000000  0.048365 -0.023488      1.000000
  0.024182  0.048365 -0.023488      1.000000
  0.048365  0.048365 -0.023488      1.000000
  0.072547  0.048365 -0.023488      1.000000
  0.096730  0.048365 -0.023488      1.000000
  0.120912  0.048365 -0.023488      1.000000
 -0.096730  0.048365 -0.023488      1.000000
 -0.072547  0.048365 -0.023488      1.000000
 -0.048365  0.048365 -0.023488      1.000000
 -0.024182  0.048365 -0.023488      1.000000
  0.000000  0.072547 -0.023488      1.000000
  0.024182  0.072547 -0.023488      1.000000
  0.048365  0.072547 -0.023488      1.000000
  0.072547  0.072547 -0.023488      1.000000
  0.096730  0.072547 -0.023488      1.000000
  0.120912  0.072547 -0.023488      1.000000
 -0.096730  0.072547 -0.023488      1.000000
 -0.072547  0.072547 -0.023488      1.000000
 -0.048365  0.072547 -0.023488      1.000000
 -0.024182  0.072547 -0.023488      1.000000
  0.000000  0.096730 -0.023488      1.000000
  0.024182  0.096730 -0.023488      1.000000
  0.048365  0.096730 -0.023488      1.000000
  0.072547  0.096730 -0.023488      1.000000
  0.096730  0.096730 -0.023488      1.000000
  0.120912  0.096730 -0.023488      1.000000
 -0.096730  0.096730 -0.023488      1.000000
 -0.072547  0.096730 -0.023488      1.000000
 -0.048365  0.096730 -0.023488      1.000000
 -0.024182  0.096730 -0.023488      1.000000
  0.000000  0.120912 -0.023488      1.000000
  0.024182  0.120912 -0.023488      1.000000
  0.048365  0.120912 -0.023488      1.000000
  0.072547  0.120912 -0.023488      1.000000
  0.096730  0.120912 -0.023488      1.000000
  0.120912  0.120912 -0.023488      1.000000
 -0.096730  0.120912 -0.023488      1.000000
 -0.072547  0.120912 -0.023488      1.000000
 -0.048365  0.120912 -0.023488      1.000000
 -0.024182  0.120912 -0.023488      1.000000
  0.000000 -0.096730 -0.023488      1.000000
  0.024182 -0.096730 -0.023488      1.000000
  0.048365 -0.096730 -0.023488      1.000000
  0.072547 -0.096730 -0.023488      1.000000
  0.096730 -0.096730 -0.023488      1.000000
  0.120912 -0.096730 -0.023488      1.000000
 -0.096730 -0.096730 -0.023488      1.000000
 -0.072547 -0.096730 -0.023488      1.000000
 -0.048365 -0.096730 -0.023488      1.000000
 -0.024182 -0.096730 -0.023488      1.000000
  0.000000 -0.072547 -0.023488      1.000000
  0.024182 -0.072547 -0.023488      1.000000
  0.048365 -0.072547 -0.023488      1.000000
  0.072547 -0.072547 -0.023488      1.000000
  0.096730 -0.072547 -0.023488      1.000000
  0.120912 -0.072547 -0.023488      1.000000
 -0.096730 -0.072547 -0.023488      1.000000
 -0.072547 -0.072547 -0.023488      1.000000
 -0.048365 -0.072547 -0.023488      1.000000
 -0.024182 -0.072547 -0.023488      1.000000
  0.000000 -0.048365 -0.023488      1.000000
  0.024182 -0.048365 -0.023488      1.000000
  0.048365 -0.048365 -0.023488      1.000000
  0.072547 -0.048365 -0.023488      1.000000
  0.096730 -0.048365 -0.023488      1.000000
  0.120912 -0.048365 -0.023488      1.000000
 -0.096730 -0.048365 -0.023488      1.000000
 -0.072547 -0.048365 -0.023488      1.000000
 -0.048365 -0.048365 -0.023488      1.000000
 -0.024182 -0.048365 -0.023488      1.000000
  0.000000 -0.024182 -0.023488      1.000000
  0.024182 -0.024182 -0.023488      1.000000
  0.048365 -0.024182 -0.023488      1.000000
  0.072547 -0.024182 -0.023488      1.000000
  0.096730 -0.024182 -0.023488      1.000000
  0.120912 -0.024182 -0.023488      1.000000
 -0.096730 -0.024182 -0.023488      1.000000
 -0.072547 -0.024182 -0.023488      1.000000
 -0.048365 -0.024182 -0.023488      1.000000
 -0.024182 -0.024182 -0.023488      1.000000
 


--------------------------------------------------------------------------------------------------------




 Dimension of arrays:
   k-points           NKPTS =    500   k-points in BZ     NKDIM =    500   number of bands    NBANDS=     60
   number of dos      NEDOS =   2001   number of ions     NIONS =      6
   non local maximal  LDIM  =      8   non local SUM 2l+1 LMDIM =     32
   total plane-waves  NPLWV =  43904
   max r-space proj   IRMAX =      1   max aug-charges    IRDMAX= 143602
   dimension x,y,z NGX =    28 NGY =   28 NGZ =   56
   dimension x,y,z NGXF=    56 NGYF=   56 NGZF=  112
   support grid    NGXF=   112 NGYF=  112 NGZF=  224
   ions per type =               2   4
   NGX,Y,Z   is equivalent  to a cutoff of  11.26, 11.26, 10.93 a.u.
   NGXF,Y,Z  is equivalent  to a cutoff of  22.51, 22.51, 21.87 a.u.

 SYSTEM =  unknown system                          
 POSCAR =  Th2 As4                                 

 Startparameter for this run:
   NWRITE =      2    write-flag & timer
   PREC   = accura    normal or accurate (medium, high low for compatibility)
   ISTART =      0    job   : 0-new  1-cont  2-samecut
   ICHARG =      2    charge: 1-file 2-atom 10-const
   ISPIN  =      1    spin polarized calculation?
   LNONCOLLINEAR =      T non collinear calculations
   LSORBIT =      T    spin-orbit coupling
   INIWAV =      1    electr: 0-lowe 1-rand  2-diag
   LASPH  =      F    aspherical Exc in radial PAW
 Electronic Relaxation 1
   ENCUT  =  400.0 eV  29.40 Ry    5.42 a.u.   6.74  6.74 13.89*2*pi/ulx,y,z
   ENINI  =  400.0     initial cutoff
   ENAUG  =  535.4 eV  augmentation charge cutoff
   NELM   =    100;   NELMIN=  2; NELMDL= -5     # of ELM steps 
   EDIFF  = 0.1E-07   stopping-criterion for ELM
   LREAL  =      F    real-space projection
   NLSPLINE    = F    spline interpolate recip. space projectors
   LCOMPAT=      F    compatible to vasp.4.4
   GGA_COMPAT  = F    GGA compatible to vasp.4.4-vasp.4.6
   LMAXPAW     = -100 max onsite density
   LMAXMIX     =    4 max onsite mixed and CHGCAR
   VOSKOWN=      1    Vosko Wilk Nusair interpolation
   ROPT   =    0.00000   0.00000
 Ionic relaxation
   EDIFFG = 0.1E-06   stopping-criterion for IOM
   NSW    =      0    number of steps for IOM
   NBLOCK =      1;   KBLOCK =      1    inner block; outer block 
   IBRION =     -1    ionic relax: 0-MD 1-quasi-New 2-CG
   NFREE  =      0    steps in history (QN), initial steepest desc. (CG)
   ISIF   =      2    stress and relaxation
   IWAVPR =     10    prediction:  0-non 1-charg 2-wave 3-comb
   ISYM   =     -1    0-nonsym 1-usesym 2-fastsym
   LCORR  =      T    Harris-Foulkes like correction to forces

   POTIM  = 0.5000    time-step for ionic-motion
   TEIN   =    0.0    initial temperature
   TEBEG  =    0.0;   TEEND  =   0.0 temperature during run
   SMASS  =  -3.00    Nose mass-parameter (am)
   estimated Nose-frequenzy (Omega)   =  0.10E-29 period in steps = 0.13E+47 mass=  -0.391E-27a.u.
   SCALEE = 1.0000    scale energy and forces
   NPACO  =    256;   APACO  = 10.0  distance and # of slots for P.C.
   PSTRESS=    0.0 pullay stress

  Mass of Ions in am
   POMASS = 232.04 74.92
  Ionic Valenz
   ZVAL   =  12.00  5.00
  Atomic Wigner-Seitz radii
   RWIGS  =  -1.00 -1.00
  virtual crystal weights 
   VCA    =   1.00  1.00
   NELECT =      44.0000    total number of electrons
   NUPDOWN=      -1.0000    fix difference up-down

 DOS related values:
   EMIN   =  10.00;   EMAX   =-10.00  energy-range for DOS
   EFERMI =   0.00;   METHOD = LEGACY      
   ISMEAR =     0;   SIGMA  =   0.05  broadening in eV -4-tet -1-fermi 0-gaus

 Electronic relaxation 2 (details)
   IALGO  =     38    algorithm
   LDIAG  =      T    sub-space diagonalisation (order eigenvalues)
   LSUBROT=      F    optimize rotation matrix (better conditioning)
   TURBO    =      0    0=normal 1=particle mesh
   IRESTART =      0    0=no restart 2=restart with 2 vectors
   NREBOOT  =      0    no. of reboots
   NMIN     =      0    reboot dimension
   EREF     =   0.00    reference energy to select bands
   IMIX   =      4    mixing-type and parameters
     AMIX     =   0.40;   BMIX     =  1.00
     AMIX_MAG =   1.60;   BMIX_MAG =  1.00
     AMIN     =   0.10
     WC   =   100.;   INIMIX=   1;  MIXPRE=   1;  MAXMIX= -45

 Intra band minimization:
   WEIMIN = 0.0000     energy-eigenvalue tresh-hold
   EBREAK =  0.42E-10  absolut break condition
   DEPER  =   0.30     relativ break condition  

   TIME   =   0.40     timestep for ELM

  volume/ion in A,a.u.               =      24.27       163.77
  Fermi-wavevector in a.u.,A,eV,Ry     =   1.098573  2.076001 16.420351  1.206862
  Thomas-Fermi vector in A             =   2.234952
 
 Write flags
   LWAVE        =      T    write WAVECAR
   LDOWNSAMPLE  =      F    k-point downsampling of WAVECAR
   LCHARG       =      T    write CHGCAR
   LVTOT        =      F    write LOCPOT, total local potential
   LVHAR        =      F    write LOCPOT, Hartree potential only
   LELF         =      F    write electronic localiz. function (ELF)
   LORBIT       =     11    0 simple, 1 ext, 2 COOP (PROOUT), +10 PAW based schemes


 Dipole corrections
   LMONO  =      F    monopole corrections only (constant potential shift)
   LDIPOL =      F    correct potential (dipole corrections)
   IDIPOL =      0    1-x, 2-y, 3-z, 4-all directions 
   EPSILON=  1.0000000 bulk dielectric constant

 Exchange correlation treatment:
   GGA     =    --    GGA type
   LEXCH   =     8    internal setting for exchange type
   LIBXC   =     F    Libxc                    
   VOSKOWN =     1    Vosko Wilk Nusair interpolation
   LHFCALC =     F    Hartree Fock is set to
   LHFONE  =     F    Hartree Fock one center treatment
   AEXX    =    0.0000 exact exchange contribution

 Linear response parameters
   LEPSILON=     F    determine dielectric tensor
   LRPA    =     F    only Hartree local field effects (RPA)
   LNABLA  =     F    use nabla operator in PAW spheres
   LVEL    =     F    velocity operator in full k-point grid
   CSHIFT  =0.1000    complex shift for real part using Kramers Kronig
   OMEGAMAX=  -1.0    maximum frequency
   DEG_THRESHOLD= 0.2000000E-02 threshold for treating states as degnerate
   RTIME   =   -0.100 relaxation time in fs
  (WPLASMAI=    0.000 imaginary part of plasma frequency in eV, 0.658/RTIME)
   DFIELD  = 0.0000000 0.0000000 0.0000000 field for delta impulse in time
 
  Optional k-point grid parameters
   LKPOINTS_OPT  =     F    use optional k-point grid
   KPOINTS_OPT_MODE=     1    mode for optional k-point grid
 
 Orbital magnetization related:
   ORBITALMAG=     F  switch on orbital magnetization
   LCHIMAG   =     F  perturbation theory with respect to B field
   DQ        =  0.001000  dq finite difference perturbation B field
   LLRAUG    =     F  two centre corrections for induced B field
   LBONE     =     F  B-component reconstruction in AE one-centre
   LVGVCALC  =     T  calculate vGv susceptibility
   LVGVAPPL  =     F  apply vGv susceptibility instead of pGv for G=0

 Random number generation:
   RANDOM_GENERATOR = DEFAULT
   PCG_SEED         = not used


--------------------------------------------------------------------------------------------------------


 Static calculation
 charge density and potential will be updated during run
 non collinear spin polarized calculation
 Variant of blocked Davidson
 Davidson routine will perform the subspace rotation
 perform sub-space diagonalisation
    after iterative eigenvector-optimisation
 modified Broyden-mixing scheme, WC =      100.0
 initial mixing is a Kerker type mixing with AMIX =  0.4000 and BMIX =      1.0000
 Hartree-type preconditioning will be used
 using additional bands           38
 reciprocal scheme for non local part
 use partial core corrections
 calculate Harris-corrections to forces 
   (improved forces if not selfconsistent)
 use gradient corrections 
 use of overlap-Matrix (Vanderbilt PP)
 Gauss-broadening in eV      SIGMA  =   0.05


--------------------------------------------------------------------------------------------------------


  energy-cutoff  :      400.00
  volume of cell :      145.61
      direct lattice vectors                 reciprocal lattice vectors
     4.135232243  0.000000000  0.000000000     0.241824386  0.000000000  0.000000000
     0.000000000  4.135232243  0.000000000     0.000000000  0.241824386  0.000000000
     0.000000000  0.000000000  8.515126265     0.000000000  0.000000000  0.117438071

  length of vectors
     4.135232243  4.135232243  8.515126265     0.241824386  0.241824386  0.117438071


 
 k-points in units of 2pi/SCALE and weight: K-Spacing Value to Generate K-Mesh: 0.04
   0.00000000  0.00000000  0.00000000       0.002
   0.02418244  0.00000000  0.00000000       0.002
   0.04836488  0.00000000  0.00000000       0.002
   0.07254732  0.00000000  0.00000000       0.002
   0.09672975  0.00000000  0.00000000       0.002
   0.12091219  0.00000000  0.00000000       0.002
  -0.09672975  0.00000000  0.00000000       0.002
  -0.07254732  0.00000000  0.00000000       0.002
  -0.04836488  0.00000000  0.00000000       0.002
  -0.02418244  0.00000000  0.00000000       0.002
   0.00000000  0.02418244  0.00000000       0.002
   0.02418244  0.02418244  0.00000000       0.002
   0.04836488  0.02418244  0.00000000       0.002
   0.07254732  0.02418244  0.00000000       0.002
   0.09672975  0.02418244  0.00000000       0.002
   0.12091219  0.02418244  0.00000000       0.002
  -0.09672975  0.02418244  0.00000000       0.002
  -0.07254732  0.02418244  0.00000000       0.002
  -0.04836488  0.02418244  0.00000000       0.002
  -0.02418244  0.02418244  0.00000000       0.002
   0.00000000  0.04836488  0.00000000       0.002
   0.02418244  0.04836488  0.00000000       0.002
   0.04836488  0.04836488  0.00000000       0.002
   0.07254732  0.04836488  0.00000000       0.002
   0.09672975  0.04836488  0.00000000       0.002
   0.12091219  0.04836488  0.00000000       0.002
  -0.09672975  0.04836488  0.00000000       0.002
  -0.07254732  0.04836488  0.00000000       0.002
  -0.04836488  0.04836488  0.00000000       0.002
  -0.02418244  0.04836488  0.00000000       0.002
   0.00000000  0.07254732  0.00000000       0.002
   0.02418244  0.07254732  0.00000000       0.002
   0.04836488  0.07254732  0.00000000       0.002
   0.07254732  0.07254732  0.00000000       0.002
   0.09672975  0.07254732  0.00000000       0.002
   0.12091219  0.07254732  0.00000000       0.002
  -0.09672975  0.07254732  0.00000000       0.002
  -0.07254732  0.07254732  0.00000000       0.002
  -0.04836488  0.07254732  0.00000000       0.002
  -0.02418244  0.07254732  0.00000000       0.002
   0.00000000  0.09672975  0.00000000       0.002
   0.02418244  0.09672975  0.00000000       0.002
   0.04836488  0.09672975  0.00000000       0.002
   0.07254732  0.09672975  0.00000000       0.002
   0.09672975  0.09672975  0.00000000       0.002
   0.12091219  0.09672975  0.00000000       0.002
  -0.09672975  0.09672975  0.00000000       0.002
  -0.07254732  0.09672975  0.00000000       0.002
  -0.04836488  0.09672975  0.00000000       0.002
  -0.02418244  0.09672975  0.00000000       0.002
   0.00000000  0.12091219  0.00000000       0.002
   0.02418244  0.12091219  0.00000000       0.002
   0.04836488  0.12091219  0.00000000       0.002
   0.07254732  0.12091219  0.00000000       0.002
   0.09672975  0.12091219  0.00000000       0.002
   0.12091219  0.12091219  0.00000000       0.002
  -0.09672975  0.12091219  0.00000000       0.002
  -0.07254732  0.12091219  0.00000000       0.002
  -0.04836488  0.12091219  0.00000000       0.002
  -0.02418244  0.12091219  0.00000000       0.002
   0.00000000 -0.09672975  0.00000000       0.002
   0.02418244 -0.09672975  0.00000000       0.002
   0.04836488 -0.09672975  0.00000000       0.002
   0.07254732 -0.09672975  0.00000000       0.002
   0.09672975 -0.09672975  0.00000000       0.002
   0.12091219 -0.09672975  0.00000000       0.002
  -0.09672975 -0.09672975  0.00000000       0.002
  -0.07254732 -0.09672975  0.00000000       0.002
  -0.04836488 -0.09672975  0.00000000       0.002
  -0.02418244 -0.09672975  0.00000000       0.002
   0.00000000 -0.07254732  0.00000000       0.002
   0.02418244 -0.07254732  0.00000000       0.002
   0.04836488 -0.07254732  0.00000000       0.002
   0.07254732 -0.07254732  0.00000000       0.002
   0.09672975 -0.07254732  0.00000000       0.002
   0.12091219 -0.07254732  0.00000000       0.002
  -0.09672975 -0.07254732  0.00000000       0.002
  -0.07254732 -0.07254732  0.00000000       0.002
  -0.04836488 -0.07254732  0.00000000       0.002
  -0.02418244 -0.07254732  0.00000000       0.002
   0.00000000 -0.04836488  0.00000000       0.002
   0.02418244 -0.04836488  0.00000000       0.002
   0.04836488 -0.04836488  0.00000000       0.002
   0.07254732 -0.04836488  0.00000000       0.002
   0.09672975 -0.04836488  0.00000000       0.002
   0.12091219 -0.04836488  0.00000000       0.002
  -0.09672975 -0.04836488  0.00000000       0.002
  -0.07254732 -0.04836488  0.00000000       0.002
  -0.04836488 -0.04836488  0.00000000       0.002
  -0.02418244 -0.04836488  0.00000000       0.002
   0.00000000 -0.02418244  0.00000000       0.002
   0.02418244 -0.02418244  0.00000000       0.002
   0.04836488 -0.02418244  0.00000000       0.002
   0.07254732 -0.02418244  0.00000000       0.002
   0.09672975 -0.02418244  0.00000000       0.002
   0.12091219 -0.02418244  0.00000000       0.002
  -0.09672975 -0.02418244  0.00000000       0.002
  -0.07254732 -0.02418244  0.00000000       0.002
  -0.04836488 -0.02418244  0.00000000       0.002
  -0.02418244 -0.02418244  0.00000000       0.002
   0.00000000  0.00000000  0.02348761       0.002
   0.02418244  0.00000000  0.02348761       0.002
   0.04836488  0.00000000  0.02348761       0.002
   0.07254732  0.00000000  0.02348761       0.002
   0.09672975  0.00000000  0.02348761       0.002
   0.12091219  0.00000000  0.02348761       0.002
  -0.09672975  0.00000000  0.02348761       0.002
  -0.07254732  0.00000000  0.02348761       0.002
  -0.04836488  0.00000000  0.02348761       0.002
  -0.02418244  0.00000000  0.02348761       0.002
   0.00000000  0.02418244  0.02348761       0.002
   0.02418244  0.02418244  0.02348761       0.002
   0.04836488  0.02418244  0.02348761       0.002
   0.07254732  0.02418244  0.02348761       0.002
   0.09672975  0.02418244  0.02348761       0.002
   0.12091219  0.02418244  0.02348761       0.002
  -0.09672975  0.02418244  0.02348761       0.002
  -0.07254732  0.02418244  0.02348761       0.002
  -0.04836488  0.02418244  0.02348761       0.002
  -0.02418244  0.02418244  0.02348761       0.002
   0.00000000  0.04836488  0.02348761       0.002
   0.02418244  0.04836488  0.02348761       0.002
   0.04836488  0.04836488  0.02348761       0.002
   0.07254732  0.04836488  0.02348761       0.002
   0.09672975  0.04836488  0.02348761       0.002
   0.12091219  0.04836488  0.02348761       0.002
  -0.09672975  0.04836488  0.02348761       0.002
  -0.07254732  0.04836488  0.02348761       0.002
  -0.04836488  0.04836488  0.02348761       0.002
  -0.02418244  0.04836488  0.02348761       0.002
   0.00000000  0.07254732  0.02348761       0.002
   0.02418244  0.07254732  0.02348761       0.002
   0.04836488  0.07254732  0.02348761       0.002
   0.07254732  0.07254732  0.02348761       0.002
   0.09672975  0.07254732  0.02348761       0.002
   0.12091219  0.07254732  0.02348761       0.002
  -0.09672975  0.07254732  0.02348761       0.002
  -0.07254732  0.07254732  0.02348761       0.002
  -0.04836488  0.07254732  0.02348761       0.002
  -0.02418244  0.07254732  0.02348761       0.002
[...]
  0.000  -0.000  -0.000  -0.000   0.000   0.000   0.000  -0.000  -0.000  -0.000   0.000   0.000   0.000   0.000   0.000  -0.000
  0.000   0.000  -0.000  -0.000  -0.000   0.000   0.000   0.000   0.000   0.000  -0.000  -0.000  -0.000  -0.000  -0.000   0.000
 -0.000   0.000   0.000   0.000   0.000  -0.000  -0.000  -0.000  -0.000   0.000  -0.000   0.000   0.000   0.000  -0.000   0.000
  0.000  -0.000   0.000   0.000   0.000  -0.000  -0.000  -0.000  -0.000  -0.000   0.000   0.000  -0.000   0.000   0.000  -0.000
 -0.000  -0.000  -0.000   0.000  -0.000   0.000  -0.000   0.000  -0.000  -0.000  -0.000  -0.000   0.000   0.000   0.000   0.000
  0.000  -0.000   0.000   0.000   0.000  -0.000  -0.000  -0.000  -0.000   0.000   0.000  -0.000   0.000   0.000  -0.000  -0.000
 -0.000  -0.000   0.000   0.000  -0.000  -0.000   0.000   0.000  -0.000  -0.000  -0.000   0.000  -0.000   0.000   0.000   0.000
 -0.000  -0.000  -0.000   0.000   0.000  -0.000  -0.000  -0.000  -0.000   0.000   0.000  -0.000  -0.000   0.000  -0.000  -0.000
 -0.000   0.000  -0.000   0.000   0.000   0.000  -0.000  -0.000  -0.000  -0.000   0.000   0.000   0.000   0.000   0.000  -0.000
  0.000  -0.000  -0.000  -0.000  -0.000   0.000   0.000   0.000   0.000  -0.000   0.000  -0.000  -0.000  -0.000   0.000  -0.000
 -0.000   0.000  -0.000  -0.000  -0.000   0.000   0.000   0.000   0.000   0.000  -0.000  -0.000   0.000  -0.000  -0.000   0.000
  0.000   0.000   0.000  -0.000   0.000  -0.000   0.000  -0.000   0.000   0.000   0.000   0.000  -0.000  -0.000  -0.000  -0.000
 -0.000   0.000  -0.000  -0.000  -0.000   0.000   0.000   0.000   0.000  -0.000  -0.000   0.000  -0.000  -0.000   0.000   0.000
  0.000   0.000  -0.000  -0.000   0.000   0.000  -0.000  -0.000   0.000   0.000   0.000  -0.000   0.000  -0.000  -0.000  -0.000
  0.000  -0.000   0.000  -0.000   0.000   0.000   0.000  -0.000   0.000  -0.000  -0.000   0.000   0.000  -0.000   0.000   0.000


------------------------ aborting loop because EDIFF is reached ----------------------------------------





 total charge

# of ion       s       p       d       f       tot
--------------------------------------------------
    1        2.111   5.842   1.005   0.408   9.366
    2        2.111   5.842   1.005   0.408   9.366
    3        1.270   1.388   0.033   0.000   2.692
    4        1.270   1.388   0.033   0.000   2.692
    5        1.223   1.608   0.019   0.000   2.851
    6        1.223   1.608   0.019   0.000   2.851
--------------------------------------------------
tot          9.208  17.677   2.116   0.816  29.818



 magnetization (x)

# of ion       s       p       d       f       tot
--------------------------------------------------
    1        0.000   0.000  -0.000   0.000   0.000
    2        0.000   0.000  -0.000   0.000   0.000
    3        0.000  -0.000  -0.000   0.000   0.000
    4        0.000  -0.000  -0.000   0.000   0.000
    5        0.000  -0.000  -0.000   0.000   0.000
    6        0.000  -0.000  -0.000   0.000  -0.000
--------------------------------------------------
tot          0.000   0.000  -0.000   0.000   0.000



 magnetization (y)

# of ion       s       p       d       f       tot
--------------------------------------------------
    1        0.000   0.000  -0.000   0.000   0.000
    2        0.000   0.000  -0.000   0.000   0.000
    3        0.000  -0.000  -0.000   0.000   0.000
    4        0.000  -0.000  -0.000   0.000   0.000
    5        0.000  -0.000  -0.000   0.000  -0.000
    6        0.000  -0.000  -0.000   0.000   0.000
--------------------------------------------------
tot          0.000   0.000  -0.000   0.000   0.000



 magnetization (z)

# of ion       s       p       d       f       tot
--------------------------------------------------
    1        0.000   0.000  -0.000   0.000   0.000
    2        0.000   0.000  -0.000   0.000   0.000
    3        0.000  -0.000  -0.000   0.000  -0.000
    4        0.000  -0.000  -0.000   0.000  -0.000
    5        0.000  -0.000  -0.000   0.000  -0.000
    6        0.000  -0.000  -0.000   0.000  -0.000
--------------------------------------------------
tot          0.000   0.000  -0.000   0.000   0.000
 
    CHARGE:  cpu time      0.7573: real time      0.7684
    FORLOC:  cpu time      0.0010: real time      0.0010
    FORNL :  cpu time      3.1820: real time      3.2423
    STRESS:  cpu time      8.0122: real time      8.2042
    FORCOR:  cpu time      0.0480: real time      0.0587
    FORHAR:  cpu time      0.0053: real time      0.0064
    MIXING:  cpu time      0.0034: real time      0.0034
    OFIELD:  cpu time      0.0000: real time      0.0000

  FORCE on cell =-STRESS in cart. coord.  units (eV):
  Direction    XX          YY          ZZ          XY          YZ          ZX
  --------------------------------------------------------------------------------------
  Alpha Z   211.48994   211.48994   211.48994
  Ewald    -822.23848  -822.23848  -894.55491    -0.00000    -0.00000     0.00000
  Hartree    92.06894    92.06894    57.70709     0.00000    -0.00000    -0.00000
  E(xc)    -170.25119  -170.25119  -170.76709    -0.00000    -0.00000    -0.00000
  Local     -24.00190   -24.00190    75.17077    -0.00000    -0.00000    -0.00000
  n-local   176.42384   176.42384   180.38419     0.00000     0.00000     0.00000
  augment   -66.06183   -66.06183   -66.27902     0.00000     0.00000     0.00000
  Kinetic   602.05805   602.05805   606.99507    -0.00000     0.00000     0.00000
  Fock        0.00000     0.00000     0.00000     0.00000     0.00000     0.00000
  -------------------------------------------------------------------------------------
  Total      -0.51264    -0.51264     0.14604    -0.00000     0.00000     0.00000
  in kB      -5.64065    -5.64065     1.60693    -0.00000     0.00000     0.00000
  external pressure =       -3.22 kB  Pullay stress =        0.00 kB


 VOLUME and BASIS-vectors are now :
 -----------------------------------------------------------------------------
  energy-cutoff  :      400.00
  volume of cell :      145.61
      direct lattice vectors                 reciprocal lattice vectors
     4.135232243  0.000000000  0.000000000     0.241824386  0.000000000  0.000000000
     0.000000000  4.135232243  0.000000000     0.000000000  0.241824386  0.000000000
     0.000000000  0.000000000  8.515126265     0.000000000  0.000000000  0.117438071

  length of vectors
     4.135232243  4.135232243  8.515126265     0.241824386  0.241824386  0.117438071


 FORCES acting on ions
    electron-ion (+dipol)            ewald-force                    non-local-force                 convergence-correction
 -----------------------------------------------------------------------------------------------
   0.238E-07 0.176E-06 0.667E+01   0.317E-07 -.317E-07 -.686E+01   -.253E-07 -.108E-07 0.175E+00   0.531E-07 -.262E-08 0.859E-04
   -.116E-06 -.162E-06 -.667E+01   -.317E-07 0.317E-07 0.686E+01   0.439E-07 0.102E-07 -.175E+00   0.158E-07 -.276E-08 -.859E-04
   0.299E-07 -.803E-07 0.380E-07   0.195E-07 0.195E-07 -.682E-08   -.339E-07 0.369E-07 -.967E-08   -.135E-07 0.223E-07 -.194E-07
   -.331E-07 0.794E-07 0.245E-07   -.195E-07 -.195E-07 -.682E-08   0.367E-07 -.365E-07 0.302E-08   0.115E-07 -.210E-07 -.152E-07
   -.157E-06 -.136E-06 -.714E+00   0.247E-07 -.247E-07 0.980E+00   0.601E-07 0.675E-07 -.322E+00   0.627E-07 0.768E-07 -.194E-04
   0.185E-06 0.116E-06 0.714E+00   -.247E-07 0.247E-07 -.980E+00   -.729E-07 -.619E-07 0.322E+00   -.750E-07 -.661E-07 0.195E-04
 -----------------------------------------------------------------------------------------------
   -.669E-07 -.710E-08 0.236E-07   0.478E-14 -.479E-14 0.555E-15   0.850E-08 0.532E-08 0.531E-08   0.546E-07 0.662E-08 -.449E-07
 
 
 POSITION                                       TOTAL-FORCE (eV/Angst)
 -----------------------------------------------------------------------------------
      0.00000      2.06762      2.40441         0.000000      0.000000     -0.016272
      2.06762      0.00000      6.11071        -0.000000     -0.000000      0.016272
      0.00000      0.00000      0.00000         0.000000     -0.000000      0.000000
      2.06762      2.06762      0.00000        -0.000000      0.000000      0.000000
      0.00000      2.06762      5.45997        -0.000000     -0.000000     -0.055565
      2.06762      0.00000      3.05515         0.000000      0.000000      0.055565
 -----------------------------------------------------------------------------------
    total drift:                               -0.000000      0.000000     -0.000000


--------------------------------------------------------------------------------------------------------



  FREE ENERGIE OF THE ION-ELECTRON SYSTEM (eV)
  ---------------------------------------------------
  free  energy   TOTEN  =       -42.74886668 eV

  energy  without entropy=      -42.74612080  energy(sigma->0) =      -42.74749374
 


--------------------------------------------------------------------------------------------------------


    POTLOK:  cpu time      0.1959: real time      0.2150


--------------------------------------------------------------------------------------------------------


 writing wavefunctions
     LOOP+:  cpu time    989.3557: real time   1021.0914
    4ORBIT:  cpu time      0.0000: real time      0.0000

 Spin-Orbit-Coupling matrix elements

 Ion:    1  E_soc:     -2.7793030
 l=   1
     0.0000000    -0.4499553    -0.4479497
    -0.4499553     0.0000000    -0.4499553
    -0.4479497    -0.4499553     0.0000000
 l=   2
     0.0000000    -0.0022694     0.0000000    -0.0022694    -0.0096854
    -0.0022694     0.0000000    -0.0066503    -0.0018591    -0.0020298
     0.0000000    -0.0066503     0.0000000    -0.0066503     0.0000000
    -0.0022694    -0.0018591    -0.0066503     0.0000000    -0.0020298
    -0.0096854    -0.0020298     0.0000000    -0.0020298     0.0000000
 l=   3
     0.0000000    -0.0003691     0.0000000     0.0000000     0.0000000    -0.0000522    -0.0015995
    -0.0003691     0.0000000    -0.0006884     0.0000000    -0.0006884    -0.0005920    -0.0003691
     0.0000000    -0.0006884     0.0000000    -0.0014112    -0.0002493    -0.0004324     0.0000000
     0.0000000     0.0000000    -0.0014112     0.0000000    -0.0014112     0.0000000     0.0000000
     0.0000000    -0.0006884    -0.0002493    -0.0014112     0.0000000    -0.0004324     0.0000000
    -0.0000522    -0.0005920    -0.0004324     0.0000000    -0.0004324     0.0000000    -0.0000522
    -0.0015995    -0.0003691     0.0000000     0.0000000     0.0000000    -0.0000522     0.0000000

 Ion:    2  E_soc:     -2.7793030
 l=   1
     0.0000000    -0.4499553    -0.4479497
    -0.4499553     0.0000000    -0.4499553
    -0.4479497    -0.4499553     0.0000000
 l=   2
     0.0000000    -0.0022694     0.0000000    -0.0022694    -0.0096854
    -0.0022694     0.0000000    -0.0066503    -0.0018591    -0.0020298
     0.0000000    -0.0066503     0.0000000    -0.0066503     0.0000000
    -0.0022694    -0.0018591    -0.0066503     0.0000000    -0.0020298
    -0.0096854    -0.0020298     0.0000000    -0.0020298     0.0000000
 l=   3
     0.0000000    -0.0003691     0.0000000     0.0000000     0.0000000    -0.0000522    -0.0015995
    -0.0003691     0.0000000    -0.0006884     0.0000000    -0.0006884    -0.0005920    -0.0003691
     0.0000000    -0.0006884     0.0000000    -0.0014112    -0.0002493    -0.0004324     0.0000000
     0.0000000     0.0000000    -0.0014112     0.0000000    -0.0014112     0.0000000     0.0000000
     0.0000000    -0.0006884    -0.0002493    -0.0014112     0.0000000    -0.0004324     0.0000000
    -0.0000522    -0.0005920    -0.0004324     0.0000000    -0.0004324     0.0000000    -0.0000522
    -0.0015995    -0.0003691     0.0000000     0.0000000     0.0000000    -0.0000522     0.0000000

 Ion:    3  E_soc:     -0.0305837
 l=   1
     0.0000000    -0.0053846    -0.0045653
    -0.0053846     0.0000000    -0.0053846
    -0.0045653    -0.0053846     0.0000000
 l=   2
     0.0000000     0.0000029     0.0000000     0.0000029     0.0000005
     0.0000029     0.0000000     0.0000112     0.0000054     0.0000042
     0.0000000     0.0000112     0.0000000     0.0000112     0.0000000
     0.0000029     0.0000054     0.0000112     0.0000000     0.0000042
     0.0000005     0.0000042     0.0000000     0.0000042     0.0000000
 l=   3
     0.0000000     0.0000000     0.0000000     0.0000000     0.0000000     0.0000000     0.0000000
     0.0000000     0.0000000     0.0000000     0.0000000     0.0000000     0.0000000     0.0000000
     0.0000000     0.0000000     0.0000000     0.0000000     0.0000000     0.0000000     0.0000000
     0.0000000     0.0000000     0.0000000     0.0000000     0.0000000     0.0000000     0.0000000
     0.0000000     0.0000000     0.0000000     0.0000000     0.0000000     0.0000000     0.0000000
     0.0000000     0.0000000     0.0000000     0.0000000     0.0000000     0.0000000     0.0000000
     0.0000000     0.0000000     0.0000000     0.0000000     0.0000000     0.0000000     0.0000000

 Ion:    4  E_soc:     -0.0305837
 l=   1
     0.0000000    -0.0053846    -0.0045653
    -0.0053846     0.0000000    -0.0053846
    -0.0045653    -0.0053846     0.0000000
 l=   2
     0.0000000     0.0000029     0.0000000     0.0000029     0.0000005
     0.0000029     0.0000000     0.0000112     0.0000054     0.0000042
     0.0000000     0.0000112     0.0000000     0.0000112     0.0000000
     0.0000029     0.0000054     0.0000112     0.0000000     0.0000042
     0.0000005     0.0000042     0.0000000     0.0000042     0.0000000
 l=   3
     0.0000000     0.0000000     0.0000000     0.0000000     0.0000000     0.0000000     0.0000000
     0.0000000     0.0000000     0.0000000     0.0000000     0.0000000     0.0000000     0.0000000
     0.0000000     0.0000000     0.0000000     0.0000000     0.0000000     0.0000000     0.0000000
     0.0000000     0.0000000     0.0000000     0.0000000     0.0000000     0.0000000     0.0000000
     0.0000000     0.0000000     0.0000000     0.0000000     0.0000000     0.0000000     0.0000000
     0.0000000     0.0000000     0.0000000     0.0000000     0.0000000     0.0000000     0.0000000
     0.0000000     0.0000000     0.0000000     0.0000000     0.0000000     0.0000000     0.0000000

 Ion:    5  E_soc:     -0.0347462
 l=   1
     0.0000000    -0.0057201    -0.0059755
    -0.0057201     0.0000000    -0.0057201
    -0.0059755    -0.0057201     0.0000000
 l=   2
     0.0000000     0.0000055     0.0000000     0.0000055     0.0000206
     0.0000055     0.0000000     0.0000089     0.0000010    -0.0000039
     0.0000000     0.0000089     0.0000000     0.0000089     0.0000000
     0.0000055     0.0000010     0.0000089     0.0000000    -0.0000039
     0.0000206    -0.0000039     0.0000000    -0.0000039     0.0000000
 l=   3
     0.0000000     0.0000000     0.0000000     0.0000000     0.0000000     0.0000000     0.0000000
     0.0000000     0.0000000     0.0000000     0.0000000     0.0000000     0.0000000     0.0000000
     0.0000000     0.0000000     0.0000000     0.0000000     0.0000000     0.0000000     0.0000000
     0.0000000     0.0000000     0.0000000     0.0000000     0.0000000     0.0000000     0.0000000
     0.0000000     0.0000000     0.0000000     0.0000000     0.0000000     0.0000000     0.0000000
     0.0000000     0.0000000     0.0000000     0.0000000     0.0000000     0.0000000     0.0000000
     0.0000000     0.0000000     0.0000000     0.0000000     0.0000000     0.0000000     0.0000000

 Ion:    6  E_soc:     -0.0347462
 l=   1
     0.0000000    -0.0057201    -0.0059755
    -0.0057201     0.0000000    -0.0057201
    -0.0059755    -0.0057201     0.0000000
 l=   2
     0.0000000     0.0000055     0.0000000     0.0000055     0.0000206
     0.0000055     0.0000000     0.0000089     0.0000010    -0.0000039
     0.0000000     0.0000089     0.0000000     0.0000089     0.0000000
     0.0000055     0.0000010     0.0000089     0.0000000    -0.0000039
     0.0000206    -0.0000039     0.0000000    -0.0000039     0.0000000
 l=   3
     0.0000000     0.0000000     0.0000000     0.0000000     0.0000000     0.0000000     0.0000000
     0.0000000     0.0000000     0.0000000     0.0000000     0.0000000     0.0000000     0.0000000
     0.0000000     0.0000000     0.0000000     0.0000000     0.0000000     0.0000000     0.0000000
     0.0000000     0.0000000     0.0000000     0.0000000     0.0000000     0.0000000     0.0000000
     0.0000000     0.0000000     0.0000000     0.0000000     0.0000000     0.0000000     0.0000000
     0.0000000     0.0000000     0.0000000     0.0000000     0.0000000     0.0000000     0.0000000
     0.0000000     0.0000000     0.0000000     0.0000000     0.0000000     0.0000000     0.0000000



 total charge

# of ion       s       p       d       f       tot
--------------------------------------------------
    1        2.111   5.842   1.005   0.408   9.366
    2        2.111   5.842   1.005   0.408   9.366
    3        1.270   1.388   0.033   0.000   2.692
    4        1.270   1.388   0.033   0.000   2.692
    5        1.223   1.608   0.019   0.000   2.851
    6        1.223   1.608   0.019   0.000   2.851
--------------------------------------------------
tot          9.208  17.677   2.116   0.816  29.818



 magnetization (x)

# of ion       s       p       d       f       tot
--------------------------------------------------
    1        0.000   0.000  -0.000   0.000   0.000
    2        0.000   0.000  -0.000   0.000   0.000
    3        0.000  -0.000  -0.000   0.000   0.000
    4        0.000  -0.000  -0.000   0.000   0.000
    5        0.000  -0.000  -0.000   0.000   0.000
    6        0.000  -0.000  -0.000   0.000  -0.000
--------------------------------------------------
tot          0.000   0.000  -0.000   0.000   0.000



 magnetization (y)

# of ion       s       p       d       f       tot
--------------------------------------------------
    1        0.000   0.000  -0.000   0.000   0.000
    2        0.000   0.000  -0.000   0.000   0.000
    3        0.000  -0.000  -0.000   0.000   0.000
    4        0.000  -0.000  -0.000   0.000   0.000
    5        0.000  -0.000  -0.000   0.000  -0.000
    6        0.000  -0.000  -0.000   0.000   0.000
--------------------------------------------------
tot          0.000   0.000  -0.000   0.000   0.000



 magnetization (z)

# of ion       s       p       d       f       tot
--------------------------------------------------
    1        0.000   0.000  -0.000   0.000   0.000
    2        0.000   0.000  -0.000   0.000   0.000
    3        0.000  -0.000  -0.000   0.000  -0.000
    4        0.000  -0.000  -0.000   0.000  -0.000
    5        0.000  -0.000  -0.000   0.000  -0.000
    6        0.000  -0.000  -0.000   0.000  -0.000
--------------------------------------------------
tot          0.000   0.000  -0.000   0.000   0.000
 

 total amount of memory used by VASP MPI-rank0   282181. kBytes
=======================================================================

   base      :      30000. kBytes
   nonl-proj :     174145. kBytes
   fftplans  :       3148. kBytes
   grid      :       4415. kBytes
   one-center:        393. kBytes
   wavefun   :      70080. kBytes
 
  
  
 General timing and accounting informations for this job:
 ========================================================
  
                  Total CPU time used (sec):     1040.517
                            User time (sec):      644.434
                          System time (sec):      396.082
                         Elapsed time (sec):     1074.227
  
                   Maximum memory used (kb):      441608.
                   Average memory used (kb):          N/A
  
                          Minor page faults:        91748
                          Major page faults:           98
                 Voluntary context switches:         1206
