 vasp.6.4.0 14Feb23 (build Sep 06 2023 13:50:09) complex                        
  
 executed on             LinuxIFC date 2025.08.27  12:27:24
 running   40 mpi-ranks, on    2 nodes
 distrk:  each k-point on   40 cores,    1 groups
 distr:  one band on NCORE=  10 cores,    4 groups


--------------------------------------------------------------------------------------------------------


 INCAR:
   ISTART = 0            (Read existing wavefunction, if there)
   ISPIN = 1            (Non-Spin polarised DFT)
   LREAL = .FALSE.       (Projection operators: automatic)
   ENCUT = 500        (Cut-off energy for plane wave basis set, in eV)
   PREC = Normal   (Precision level: Normal or Accurate, set Accurate when perform structure lattice relaxation calculation)
   LWAVE = .TRUE.        (Write WAVECAR or not)
   LCHARG = .TRUE.        (Write CHGCAR or not)
   ADDGRID = .TRUE.        (Increase grid, helps GGA convergence)
   ISMEAR = 0            (gaussian smearing method)
   SIGMA = 0.05         (please check the width of the smearing)
   LORBIT = 11           (PAW radii for projected DOS)
   LOPTICS = .TRUE.
   NEDOS = 2001         (DOSCAR points)
   NELM = 1000           (Max electronic SCF steps)
   NELMIN = 6
   EDIFF = 1E-06        (SCF energy convergence, in eV)
   NPAR = 4
   LSORBIT = .TRUE.    (Activate SOC)
   GGA_COMPAT = .FALSE.   (Apply spherical cutoff on gradient field)
   VOSKOWN = 1        (Enhances the magnetic moments and the magnetic energies)
   LMAXMIX = 4        (For d elements increase LMAXMIX to 4, f: LMAXMIX \= 6)
   ISYM = -1       (Switch symmetry off)
   SAXIS = 0 0 1    (Direction of the magnetic field)
   LPLANE = .FALSE.
   ALGO = Normal
   IVDW = 12

 POTCAR:    PAW_PBE Cs_sv 08Apr2002               
 POTCAR:    PAW_PBE V_sv 02Aug2007                
 POTCAR:    PAW_PBE Sb 06Sep2000                  
 -----------------------------------------------------------------------------
|                                                                             |
|           W    W    AA    RRRRR   N    N  II  N    N   GGGG   !!!           |
|           W    W   A  A   R    R  NN   N  II  NN   N  G    G  !!!           |
|           W    W  A    A  R    R  N N  N  II  N N  N  G       !!!           |
|           W WW W  AAAAAA  RRRRR   N  N N  II  N  N N  G  GGG   !            |
|           WW  WW  A    A  R   R   N   NN  II  N   NN  G    G                |
|           W    W  A    A  R    R  N    N  II  N    N   GGGG   !!!           |
|                                                                             |
|     You use a magnetic or noncollinear calculation, but did not specify     |
|     the initial magnetic moment with the MAGMOM tag. Note that a            |
|     default of 1 will be used for all atoms. This ferromagnetic setup       |
|     may break the symmetry of the crystal, in particular it may rule        |
|     out finding an antiferromagnetic solution. Thence, we recommend         |
|     setting the initial magnetic moment manually or verifying carefully     |
|     that this magnetic setup is desired.                                    |
|                                                                             |
 -----------------------------------------------------------------------------

 POTCAR:    PAW_PBE Cs_sv 08Apr2002               
   SHA256 =  c1463496f0f6037ed62c6012a8013a89ee9ad6ffb38599dcd6c079e7ed31779b Cs_sv/POTCAR          
   COPYR  = (c) Copyright 08Apr2002 Georg Kresse                                                    
   COPYR  = This file is part of the software VASP. Any use, copying, and all other rights are regul
   COPYR  = If you do not have a valid VASP license, you may not use, copy or distribute this file. 
   VRHFIN =Cs: 5s5p6s                                                                               
   LEXCH  = PE                                                                                      
   EATOM  =   555.6835 eV,   40.8416 Ry                                                             
                                                                                                    
   TITEL  = PAW_PBE Cs_sv 08Apr2002                                                                 
   LULTRA =        F    use ultrasoft PP ?                                                          
   IUNSCR =        1    unscreen: 0-lin 1-nonlin 2-no                                               
   RPACOR =    2.200    partial core radius                                                         
   POMASS =  132.900; ZVAL   =    9.000    mass and valenz                                          
   RCORE  =    2.500    outmost cutoff radius                                                       
   RWIGS  =    2.500; RWIGS  =    1.323    wigner-seitz radius (au A)                               
   ENMAX  =  220.318; ENMIN  =  165.238 eV                                                          
   RCLOC  =    2.207    cutoff for local pot                                                        
   LCOR   =        T    correct aug charges                                                         
   LPAW   =        T    paw PP                                                                      
   EAUG   =  407.933                                                                                
   DEXC   =    0.000                                                                                
   RMAX   =    2.554    core radius for proj-oper                                                   
   RAUG   =    1.300    factor for augmentation sphere                                              
   RDEP   =    2.590    radius for radial grids                                                     
   RDEPT  =    2.117    core radius for aug-charge                                                  
                                                                                                    
   Atomic configuration                                                                             
   13 entries                                                                                       
     n  l   j            E        occ.                                                              
     1  0  0.50    -35790.1377   2.0000                                                             
     2  0  0.50     -5613.6201   2.0000                                                             
     2  1  1.50     -5035.0101   6.0000                                                             
     3  0  0.50     -1167.0767   2.0000                                                             
     3  1  1.50      -980.9754   6.0000                                                             
     3  2  2.50      -708.0703  10.0000                                                             
     4  0  0.50      -220.2386   2.0000                                                             
     4  1  1.50      -160.7596   6.0000                                                             
     4  2  2.50       -74.2354  10.0000                                                             
     5  0  0.50       -26.7287   2.0000                                                             
     6  0  0.50        -2.0862   1.0000                                                             
     5  1  1.50       -13.5159   6.0000                                                             
     5  2  2.50        -0.4136   0.0000                                                             
   Description                                                                                      
     l       E           TYP  RCUT    TYP  RCUT                                                     
     0    -26.7287425     23  1.900                                                                 
     0     -2.0862306     23  1.900                                                                 
     1    -13.5158719     23  2.500                                                                 
     1     -2.7211652     23  2.500                                                                 
     2     -0.4136171     23  2.500                                                                 
  local pseudopotential read in
  partial core-charges read in
  partial kinetic energy density read in
  atomic valenz-charges read in
  non local Contribution for L=           0  read in
    real space projection operators read in
  non local Contribution for L=           0  read in
    real space projection operators read in
  non local Contribution for L=           1  read in
    real space projection operators read in
  non local Contribution for L=           1  read in
    real space projection operators read in
  non local Contribution for L=           2  read in
    real space projection operators read in
    PAW grid and wavefunctions read in
 
   number of l-projection  operators is LMAX  =           5
   number of lm-projection operators is LMMAX =          13
 
 POTCAR:    PAW_PBE V_sv 02Aug2007                
   SHA256 =  5c2e894a17530853db616eb76e59147e643e0698a6c55875a3dffd96a7885e93 V_sv/POTCAR           
   COPYR  = (c) Copyright 02Aug2007 Georg Kresse                                                    
   COPYR  = This file is part of the software VASP. Any use, copying, and all other rights are regul
   COPYR  = If you do not have a valid VASP license, you may not use, copy or distribute this file. 
   VRHFIN =V: p6 d4 s1                                                                              
   LEXCH  = PE                                                                                      
   EATOM  =  1952.1149 eV,  143.4764 Ry                                                             
                                                                                                    
   TITEL  = PAW_PBE V_sv 02Aug2007                                                                  
   LULTRA =        F    use ultrasoft PP ?                                                          
   IUNSCR =        1    unscreen: 0-lin 1-nonlin 2-no                                               
   RPACOR =    2.000    partial core radius                                                         
   POMASS =   50.941; ZVAL   =   13.000    mass and valenz                                          
   RCORE  =    2.300    outmost cutoff radius                                                       
   RWIGS  =    2.300; RWIGS  =    1.217    wigner-seitz radius (au A)                               
   ENMAX  =  263.673; ENMIN  =  197.755 eV                                                          
   ICORE  =        3    local potential                                                             
   LCOR   =        T    correct aug charges                                                         
   LPAW   =        T    paw PP                                                                      
   EAUG   =  526.568                                                                                
   RMAX   =    2.359    core radius for proj-oper                                                   
   RAUG   =    1.300    factor for augmentation sphere                                              
   RDEP   =    2.430    radius for radial grids                                                     
   RDEPT  =    1.870    core radius for aug-charge                                                  
                                                                                                    
   Atomic configuration                                                                             
    8 entries                                                                                       
     n  l   j            E        occ.                                                              
     1  0  0.50     -5360.7193   2.0000                                                             
     2  0  0.50      -598.4546   2.0000                                                             
     2  1  1.50      -499.0155   6.0000                                                             
     3  0  0.50       -66.5711   2.0000                                                             
     4  0  0.50        -3.8743   1.0000                                                             
     3  1  1.50       -40.5282   6.0000                                                             
     3  2  2.50        -2.4291   4.0000                                                             
     4  3  2.50        -1.3606   0.0000                                                             
   Description                                                                                      
     l       E           TYP  RCUT    TYP  RCUT                                                     
     0    -66.5711413     23  1.800                                                                 
     0     -3.8742736     23  2.300                                                                 
     1    -40.5282350     23  2.000                                                                 
     1      5.4423304     23  2.000                                                                 
     2     -2.4290848     23  2.300                                                                 
     2     -1.0472431     23  2.300                                                                 
     3     -1.3605826     23  2.300                                                                 
  local pseudopotential read in
  partial core-charges read in
  partial kinetic energy density read in
  atomic valenz-charges read in
  non local Contribution for L=           0  read in
    real space projection operators read in
  non local Contribution for L=           0  read in
    real space projection operators read in
  non local Contribution for L=           1  read in
    real space projection operators read in
  non local Contribution for L=           1  read in
    real space projection operators read in
  non local Contribution for L=           2  read in
    real space projection operators read in
  non local Contribution for L=           2  read in
    real space projection operators read in
    PAW grid and wavefunctions read in
 
   number of l-projection  operators is LMAX  =           6
   number of lm-projection operators is LMMAX =          18
 
 POTCAR:    PAW_PBE Sb 06Sep2000                  
   SHA256 =  8a1325a3afd8ca988779475cff04188eb880a428d1acb53275fe456fa3b784fc Sb/POTCAR             
   COPYR  = (c) Copyright 06Sep2000 Georg Kresse                                                    
   COPYR  = This file is part of the software VASP. Any use, copying, and all other rights are regul
   COPYR  = If you do not have a valid VASP license, you may not use, copy or distribute this file. 
   VRHFIN =Sb: s2p3                                                                                 
   LEXCH  = PE                                                                                      
   EATOM  =   149.9515 eV,   11.0211 Ry                                                             
                                                                                                    
   TITEL  = PAW_PBE Sb 06Sep2000                                                                    
   LULTRA =        F    use ultrasoft PP ?                                                          
   IUNSCR =        1    unscreen: 0-lin 1-nonlin 2-no                                               
   RPACOR =    2.200    partial core radius                                                         
   POMASS =  121.750; ZVAL   =    5.000    mass and valenz                                          
   RCORE  =    2.300    outmost cutoff radius                                                       
   RWIGS  =    2.980; RWIGS  =    1.577    wigner-seitz radius (au A)                               
   ENMAX  =  172.069; ENMIN  =  129.052 eV                                                          
   ICORE  =        3    local potential                                                             
   LCOR   =        T    correct aug charges                                                         
   LPAW   =        T    paw PP                                                                      
   EAUG   =  380.513                                                                                
   DEXC   =    0.000                                                                                
   RMAX   =    2.346    core radius for proj-oper                                                   
   RAUG   =    1.300    factor for augmentation sphere                                              
   RDEP   =    2.360    radius for radial grids                                                     
   RDEPT  =    2.192    core radius for aug-charge                                                  
                                                                                                    
   Atomic configuration                                                                             
   13 entries                                                                                       
     n  l   j            E        occ.                                                              
     1  0  0.50    -30298.2797   2.0000                                                             
     2  0  0.50     -4610.2252   2.0000                                                             
     2  1  1.50     -4138.3407   6.0000                                                             
     3  0  0.50      -903.8815   2.0000                                                             
     3  1  1.50      -750.1337   6.0000                                                             
     3  2  2.50      -515.7092  10.0000                                                             
     4  0  0.50      -148.8034   2.0000                                                             
     4  1  1.50      -101.7581   6.0000                                                             
     4  2  2.50       -33.5048  10.0000                                                             
     5  0  0.50       -12.8298   2.0000                                                             
     5  1  0.50        -4.8276   3.0000                                                             
     5  2  1.50        -4.0817   0.0000                                                             
     4  3  2.50        -4.0817   0.0000                                                             
   Description                                                                                      
     l       E           TYP  RCUT    TYP  RCUT                                                     
     0    -12.8297861     23  2.300                                                                 
     0     13.6058260     23  2.300                                                                 
     1     -4.8275512     23  2.300                                                                 
     1     -0.7245443     23  2.300                                                                 
     2     -4.0817478     23  2.300                                                                 
     3     -1.3605826     23  2.300                                                                 
  local pseudopotential read in
  partial core-charges read in
  partial kinetic energy density read in
  atomic valenz-charges read in
  non local Contribution for L=           0  read in
    real space projection operators read in
  non local Contribution for L=           0  read in
    real space projection operators read in
  non local Contribution for L=           1  read in
    real space projection operators read in
  non local Contribution for L=           1  read in
    real space projection operators read in
  non local Contribution for L=           2  read in
    real space projection operators read in
    PAW grid and wavefunctions read in
 
   number of l-projection  operators is LMAX  =           5
   number of lm-projection operators is LMMAX =          13
 
  PAW_PBE Cs_sv 08Apr2002               :
 energy of atom  1       EATOM= -555.6835
 kinetic energy error for atom=    0.0019 (will be added to EATOM!!)
  PAW_PBE V_sv 02Aug2007                :
 energy of atom  2       EATOM=-1952.1149
 kinetic energy error for atom=    0.0070 (will be added to EATOM!!)
  PAW_PBE Sb 06Sep2000                  :
 energy of atom  3       EATOM= -149.9515
 kinetic energy error for atom=    0.0005 (will be added to EATOM!!)
 
 
 POSCAR: blebleble
  positions in direct lattice
  velocities in cartesian coordinates
 exchange correlation table for  LEXCH =        8
   RHO(1)=    0.500       N(1)  =     2000
   RHO(2)=  100.500       N(2)  =     4000
 


--------------------------------------------------------------------------------------------------------


 ion  position               nearest neighbor table
   1  0.000  0.000  0.359-
   2  0.500  0.500  0.557-   9 2.75   7 2.75   3 2.77   4 2.77   4 2.77   3 2.77   5 2.77   5 2.77
                             6 2.79   8 2.79
   3  1.000  0.500  0.557-   7 2.75   9 2.75   4 2.77   4 2.77   2 2.77   2 2.77   5 2.77   5 2.77
                             8 2.79   6 2.79
   4  0.500  0.000  0.557-   9 2.75   7 2.75   3 2.77   3 2.77   2 2.77   2 2.77   5 2.77   5 2.77
                             6 2.79   8 2.79
   5  0.000  0.000  0.561-   2 2.77   2 2.77   4 2.77   3 2.77   3 2.77   4 2.77
   6  0.667  0.333  0.664-   4 2.79   3 2.79   2 2.79   8 3.19   8 3.19   8 3.19
   7  0.333  0.667  0.452-   3 2.75   4 2.75   2 2.75   9 3.19   9 3.19   9 3.19
   8  0.333  0.667  0.664-   3 2.79   4 2.79   2 2.79   6 3.19   6 3.19   6 3.19
   9  0.667  0.333  0.452-   4 2.75   3 2.75   2 2.75   7 3.19   7 3.19   7 3.19
 

IMPORTANT INFORMATION: All symmetrisations will be switched off!
NOSYMM: (Re-)initialisation of all symmetry stuff for point group C_1.


----------------------------------------------------------------------------------------

                                     Primitive cell                                     

  volume of cell :     566.5723

  direct lattice vectors                    reciprocal lattice vectors
     5.530779596  0.000000208 -0.000000000     0.180806333  0.104388608 -0.000000000
    -2.765390255  4.789795369 -0.000000000    -0.000000008  0.208777182 -0.000000000
     0.000000000  0.000000000 21.387105784     0.000000000  0.000000000  0.046757145

  length of vectors
     5.530779596  5.530779596 21.387105784     0.208777182  0.208777182  0.046757145

  position of ions in fractional coordinates (direct lattice)
     1.000000000  0.000000000  0.359355280
     0.500000000  0.500000000  0.556870290
     1.000000000  0.500000000  0.556870290
     0.500000000  1.000000000  0.556870290
     1.000000000  0.000000000  0.560724891
     0.666666985  0.333332986  0.663790952
     0.333332986  0.666666985  0.452319322
     0.333332986  0.666666985  0.663790952
     0.666666985  0.333332986  0.452319322

  ion indices of the primitive-cell ions
   primitive index   ion index
                 1           1
                 2           2
                 3           3
                 4           4
                 5           5
                 6           6
                 7           7
                 8           8
                 9           9

----------------------------------------------------------------------------------------

 
 
 KPOINTS: K-Spacing Value to Generate K-Mesh: 0.04

Automatic generation of k-mesh.
 Grid dimensions read from file:
 generate k-points for:    8    8    1

 Generating k-lattice:

  Cartesian coordinates                     Fractional coordinates (reciprocal lattice)
     0.022600792  0.013048576 -0.000000000     0.125000000  0.000000000 -0.000000000
    -0.000000001  0.026097148 -0.000000000    -0.000000000  0.125000000  0.000000000
     0.000000000  0.000000000  0.046757145    -0.000000000 -0.000000000  1.000000000

  Length of vectors
     0.026097148  0.026097148  0.046757145

  Shift w.r.t. Gamma in fractional coordinates (k-lattice)
     0.000000000  0.000000000  0.000000000

 
 Subroutine IBZKPT returns following result:
 ===========================================
 
 Found     64 irreducible k-points:
 
 Following reciprocal coordinates:
            Coordinates               Weight
  0.000000  0.000000  0.000000      1.000000
  0.125000 -0.000000 -0.000000      1.000000
  0.250000 -0.000000 -0.000000      1.000000
  0.375000 -0.000000 -0.000000      1.000000
  0.500000 -0.000000 -0.000000      1.000000
 -0.375000  0.000000 -0.000000      1.000000
 -0.250000  0.000000 -0.000000      1.000000
 -0.125000  0.000000 -0.000000      1.000000
 -0.000000  0.125000  0.000000      1.000000
  0.125000  0.125000 -0.000000      1.000000
  0.250000  0.125000 -0.000000      1.000000
  0.375000  0.125000 -0.000000      1.000000
  0.500000  0.125000 -0.000000      1.000000
 -0.375000  0.125000 -0.000000      1.000000
 -0.250000  0.125000 -0.000000      1.000000
 -0.125000  0.125000 -0.000000      1.000000
 -0.000000  0.250000  0.000000      1.000000
  0.125000  0.250000 -0.000000      1.000000
  0.250000  0.250000 -0.000000      1.000000
  0.375000  0.250000 -0.000000      1.000000
  0.500000  0.250000 -0.000000      1.000000
 -0.375000  0.250000 -0.000000      1.000000
 -0.250000  0.250000 -0.000000      1.000000
 -0.125000  0.250000 -0.000000      1.000000
  0.000000  0.375000  0.000000      1.000000
  0.125000  0.375000 -0.000000      1.000000
  0.250000  0.375000 -0.000000      1.000000
  0.375000  0.375000 -0.000000      1.000000
  0.500000  0.375000 -0.000000      1.000000
 -0.375000  0.375000 -0.000000      1.000000
 -0.250000  0.375000 -0.000000      1.000000
 -0.125000  0.375000 -0.000000      1.000000
 -0.000000  0.500000  0.000000      1.000000
  0.125000  0.500000 -0.000000      1.000000
  0.250000  0.500000 -0.000000      1.000000
  0.375000  0.500000 -0.000000      1.000000
  0.500000  0.500000 -0.000000      1.000000
 -0.375000  0.500000 -0.000000      1.000000
 -0.250000  0.500000 -0.000000      1.000000
 -0.125000  0.500000 -0.000000      1.000000
 -0.000000 -0.375000  0.000000      1.000000
  0.125000 -0.375000 -0.000000      1.000000
  0.250000 -0.375000 -0.000000      1.000000
  0.375000 -0.375000 -0.000000      1.000000
  0.500000 -0.375000 -0.000000      1.000000
 -0.375000 -0.375000 -0.000000      1.000000
 -0.250000 -0.375000 -0.000000      1.000000
 -0.125000 -0.375000 -0.000000      1.000000
  0.000000 -0.250000  0.000000      1.000000
  0.125000 -0.250000 -0.000000      1.000000
  0.250000 -0.250000 -0.000000      1.000000
  0.375000 -0.250000 -0.000000      1.000000
  0.500000 -0.250000 -0.000000      1.000000
 -0.375000 -0.250000 -0.000000      1.000000
 -0.250000 -0.250000 -0.000000      1.000000
 -0.125000 -0.250000 -0.000000      1.000000
  0.000000 -0.125000  0.000000      1.000000
  0.125000 -0.125000 -0.000000      1.000000
  0.250000 -0.125000 -0.000000      1.000000
  0.375000 -0.125000 -0.000000      1.000000
  0.500000 -0.125000 -0.000000      1.000000
 -0.375000 -0.125000 -0.000000      1.000000
 -0.250000 -0.125000 -0.000000      1.000000
 -0.125000 -0.125000 -0.000000      1.000000
 
 Following cartesian coordinates:
            Coordinates               Weight
  0.000000  0.000000  0.000000      1.000000
  0.022601  0.013049 -0.000000      1.000000
  0.045202  0.026097 -0.000000      1.000000
  0.067802  0.039146 -0.000000      1.000000
  0.090403  0.052194 -0.000000      1.000000
 -0.067802 -0.039146  0.000000      1.000000
 -0.045202 -0.026097  0.000000      1.000000
 -0.022601 -0.013049 -0.000000      1.000000
 -0.000000  0.026097 -0.000000      1.000000
  0.022601  0.039146 -0.000000      1.000000
  0.045202  0.052194 -0.000000      1.000000
  0.067802  0.065243 -0.000000      1.000000
  0.090403  0.078291 -0.000000      1.000000
 -0.067802 -0.013049  0.000000      1.000000
 -0.045202 -0.000000 -0.000000      1.000000
 -0.022601  0.013049 -0.000000      1.000000
 -0.000000  0.052194 -0.000000      1.000000
  0.022601  0.065243 -0.000000      1.000000
  0.045202  0.078291 -0.000000      1.000000
  0.067802  0.091340 -0.000000      1.000000
  0.090403  0.104389 -0.000000      1.000000
 -0.067802  0.013049 -0.000000      1.000000
 -0.045202  0.026097 -0.000000      1.000000
 -0.022601  0.039146 -0.000000      1.000000
 -0.000000  0.078291 -0.000000      1.000000
  0.022601  0.091340 -0.000000      1.000000
  0.045202  0.104389 -0.000000      1.000000
  0.067802  0.117437 -0.000000      1.000000
  0.090403  0.130486 -0.000000      1.000000
 -0.067802  0.039146 -0.000000      1.000000
 -0.045202  0.052194 -0.000000      1.000000
 -0.022601  0.065243 -0.000000      1.000000
 -0.000000  0.104389 -0.000000      1.000000
  0.022601  0.117437 -0.000000      1.000000
  0.045202  0.130486 -0.000000      1.000000
  0.067802  0.143534 -0.000000      1.000000
  0.090403  0.156583 -0.000000      1.000000
 -0.067802  0.065243 -0.000000      1.000000
 -0.045202  0.078291 -0.000000      1.000000
 -0.022601  0.091340 -0.000000      1.000000
  0.000000 -0.078291  0.000000      1.000000
  0.022601 -0.065243  0.000000      1.000000
  0.045202 -0.052194 -0.000000      1.000000
  0.067802 -0.039146 -0.000000      1.000000
  0.090403 -0.026097 -0.000000      1.000000
 -0.067802 -0.117437  0.000000      1.000000
 -0.045202 -0.104389  0.000000      1.000000
 -0.022601 -0.091340  0.000000      1.000000
  0.000000 -0.052194  0.000000      1.000000
  0.022601 -0.039146  0.000000      1.000000
  0.045202 -0.026097 -0.000000      1.000000
  0.067802 -0.013049 -0.000000      1.000000
  0.090403  0.000000 -0.000000      1.000000
 -0.067802 -0.091340  0.000000      1.000000
 -0.045202 -0.078291  0.000000      1.000000
 -0.022601 -0.065243  0.000000      1.000000
  0.000000 -0.026097  0.000000      1.000000
  0.022601 -0.013049 -0.000000      1.000000
  0.045202  0.000000 -0.000000      1.000000
  0.067802  0.013049 -0.000000      1.000000
  0.090403  0.026097 -0.000000      1.000000
 -0.067802 -0.065243  0.000000      1.000000
 -0.045202 -0.052194  0.000000      1.000000
 -0.022601 -0.039146 -0.000000      1.000000
 


--------------------------------------------------------------------------------------------------------




 Dimension of arrays:
   k-points           NKPTS =     64   k-points in BZ     NKDIM =     64   number of bands    NBANDS=     96
   number of dos      NEDOS =   2001   number of ions     NIONS =      9
   non local maximal  LDIM  =      6   non local SUM 2l+1 LMDIM =     18
   total plane-waves  NPLWV = 108000
   max r-space proj   IRMAX =      1   max aug-charges    IRDMAX=  84819
   dimension x,y,z NGX =    30 NGY =   30 NGZ =  120
   dimension x,y,z NGXF=    60 NGYF=   60 NGZF=  240
   support grid    NGXF=   120 NGYF=  120 NGZF=  480
   ions per type =               1   3   5
   NGX,Y,Z   is equivalent  to a cutoff of   9.02,  9.02,  9.33 a.u.
   NGXF,Y,Z  is equivalent  to a cutoff of  18.03, 18.03, 18.66 a.u.

 SYSTEM =  unknown system                          
 POSCAR =  blebleble                               

 Startparameter for this run:
   NWRITE =      2    write-flag & timer
   PREC   = normal    normal or accurate (medium, high low for compatibility)
   ISTART =      0    job   : 0-new  1-cont  2-samecut
   ICHARG =      2    charge: 1-file 2-atom 10-const
   ISPIN  =      1    spin polarized calculation?
   LNONCOLLINEAR =      T non collinear calculations
   LSORBIT =      T    spin-orbit coupling
   INIWAV =      1    electr: 0-lowe 1-rand  2-diag
   LASPH  =      F    aspherical Exc in radial PAW
 Electronic Relaxation 1
   ENCUT  =  500.0 eV  36.75 Ry    6.06 a.u.  10.08 10.08 38.99*2*pi/ulx,y,z
   ENINI  =  500.0     initial cutoff
   ENAUG  =  526.6 eV  augmentation charge cutoff
   NELM   =   1000;   NELMIN=  6; NELMDL= -5     # of ELM steps 
   EDIFF  = 0.1E-05   stopping-criterion for ELM
   LREAL  =      F    real-space projection
   NLSPLINE    = F    spline interpolate recip. space projectors
   LCOMPAT=      F    compatible to vasp.4.4
   GGA_COMPAT  = F    GGA compatible to vasp.4.4-vasp.4.6
   LMAXPAW     = -100 max onsite density
   LMAXMIX     =    4 max onsite mixed and CHGCAR
   VOSKOWN=      1    Vosko Wilk Nusair interpolation
   ROPT   =    0.00000   0.00000   0.00000
 Ionic relaxation
   EDIFFG = 0.1E-04   stopping-criterion for IOM
   NSW    =      0    number of steps for IOM
   NBLOCK =      1;   KBLOCK =      1    inner block; outer block 
   IBRION =     -1    ionic relax: 0-MD 1-quasi-New 2-CG
   NFREE  =      0    steps in history (QN), initial steepest desc. (CG)
   ISIF   =      2    stress and relaxation
   IWAVPR =     10    prediction:  0-non 1-charg 2-wave 3-comb
   ISYM   =     -1    0-nonsym 1-usesym 2-fastsym
   LCORR  =      T    Harris-Foulkes like correction to forces

   POTIM  = 0.5000    time-step for ionic-motion
   TEIN   =    0.0    initial temperature
   TEBEG  =    0.0;   TEEND  =   0.0 temperature during run
   SMASS  =  -3.00    Nose mass-parameter (am)
   estimated Nose-frequenzy (Omega)   =  0.10E-29 period in steps = 0.13E+47 mass=  -0.699E-27a.u.
   SCALEE = 1.0000    scale energy and forces
   NPACO  =    256;   APACO  = 10.0  distance and # of slots for P.C.
   PSTRESS=    0.0 pullay stress

  Mass of Ions in am
   POMASS = 132.90 50.94121.75
  Ionic Valenz
   ZVAL   =   9.00 13.00  5.00
  Atomic Wigner-Seitz radii
   RWIGS  =  -1.00 -1.00 -1.00
  virtual crystal weights 
   VCA    =   1.00  1.00  1.00
   NELECT =      73.0000    total number of electrons
   NUPDOWN=      -1.0000    fix difference up-down

 DOS related values:
   EMIN   =  10.00;   EMAX   =-10.00  energy-range for DOS
   EFERMI =   0.00;   METHOD = LEGACY      
   ISMEAR =     0;   SIGMA  =   0.05  broadening in eV -4-tet -1-fermi 0-gaus

 Electronic relaxation 2 (details)
   IALGO  =     38    algorithm
   LDIAG  =      T    sub-space diagonalisation (order eigenvalues)
   LSUBROT=      F    optimize rotation matrix (better conditioning)
   TURBO    =      0    0=normal 1=particle mesh
   IRESTART =      0    0=no restart 2=restart with 2 vectors
   NREBOOT  =      0    no. of reboots
   NMIN     =      0    reboot dimension
   EREF     =   0.00    reference energy to select bands
   IMIX   =      4    mixing-type and parameters
     AMIX     =   0.40;   BMIX     =  1.00
     AMIX_MAG =   1.60;   BMIX_MAG =  1.00
     AMIN     =   0.10
     WC   =   100.;   INIMIX=   1;  MIXPRE=   1;  MAXMIX= -45

 Intra band minimization:
   WEIMIN = 0.0000     energy-eigenvalue tresh-hold
   EBREAK =  0.26E-08  absolut break condition
   DEPER  =   0.30     relativ break condition  

   TIME   =   0.40     timestep for ELM

  volume/ion in A,a.u.               =      62.95       424.82
  Fermi-wavevector in a.u.,A,eV,Ry     =   0.826858  1.562534  9.302212  0.683693
  Thomas-Fermi vector in A             =   1.938962
 
 Write flags
   LWAVE        =      T    write WAVECAR
   LDOWNSAMPLE  =      F    k-point downsampling of WAVECAR
   LCHARG       =      T    write CHGCAR
   LVTOT        =      F    write LOCPOT, total local potential
   LVHAR        =      F    write LOCPOT, Hartree potential only
   LELF         =      F    write electronic localiz. function (ELF)
   LORBIT       =     11    0 simple, 1 ext, 2 COOP (PROOUT), +10 PAW based schemes


 Dipole corrections
   LMONO  =      F    monopole corrections only (constant potential shift)
   LDIPOL =      F    correct potential (dipole corrections)
   IDIPOL =      0    1-x, 2-y, 3-z, 4-all directions 
   EPSILON=  1.0000000 bulk dielectric constant

 Exchange correlation treatment:
   GGA     =    --    GGA type
   LEXCH   =     8    internal setting for exchange type
   LIBXC   =     F    Libxc                    
   VOSKOWN =     1    Vosko Wilk Nusair interpolation
   LHFCALC =     F    Hartree Fock is set to
   LHFONE  =     F    Hartree Fock one center treatment
   AEXX    =    0.0000 exact exchange contribution

 Linear response parameters
   LEPSILON=     F    determine dielectric tensor
   LRPA    =     F    only Hartree local field effects (RPA)
   LNABLA  =     F    use nabla operator in PAW spheres
   LVEL    =     F    velocity operator in full k-point grid
   CSHIFT  =0.1000    complex shift for real part using Kramers Kronig
   OMEGAMAX=  -1.0    maximum frequency
   DEG_THRESHOLD= 0.2000000E-02 threshold for treating states as degnerate
   RTIME   =   -0.100 relaxation time in fs
  (WPLASMAI=    0.000 imaginary part of plasma frequency in eV, 0.658/RTIME)
   DFIELD  = 0.0000000 0.0000000 0.0000000 field for delta impulse in time
 
  Optional k-point grid parameters
   LKPOINTS_OPT  =     F    use optional k-point grid
   KPOINTS_OPT_MODE=     1    mode for optional k-point grid
 
 Orbital magnetization related:
   ORBITALMAG=     F  switch on orbital magnetization
   LCHIMAG   =     F  perturbation theory with respect to B field
   DQ        =  0.001000  dq finite difference perturbation B field
   LLRAUG    =     F  two centre corrections for induced B field
   LBONE     =     F  B-component reconstruction in AE one-centre
   LVGVCALC  =     T  calculate vGv susceptibility
   LVGVAPPL  =     F  apply vGv susceptibility instead of pGv for G=0

 Random number generation:
   RANDOM_GENERATOR = DEFAULT
   PCG_SEED         = not used


--------------------------------------------------------------------------------------------------------


 Static calculation
 charge density and potential will be updated during run
 non collinear spin polarized calculation
 Variant of blocked Davidson
 Davidson routine will perform the subspace rotation
 perform sub-space diagonalisation
    after iterative eigenvector-optimisation
 modified Broyden-mixing scheme, WC =      100.0
 initial mixing is a Kerker type mixing with AMIX =  0.4000 and BMIX =      1.0000
 Hartree-type preconditioning will be used
 using additional bands           59
 reciprocal scheme for non local part
 use partial core corrections
 calculate Harris-corrections to forces 
   (improved forces if not selfconsistent)
 use gradient corrections 
 use of overlap-Matrix (Vanderbilt PP)
 Gauss-broadening in eV      SIGMA  =   0.05


--------------------------------------------------------------------------------------------------------


  energy-cutoff  :      500.00
  volume of cell :      566.57
      direct lattice vectors                 reciprocal lattice vectors
     5.530779596  0.000000208 -0.000000000     0.180806333  0.104388608 -0.000000000
    -2.765390255  4.789795369 -0.000000000    -0.000000008  0.208777182 -0.000000000
     0.000000000  0.000000000 21.387105784     0.000000000  0.000000000  0.046757145

  length of vectors
     5.530779596  5.530779596 21.387105784     0.208777182  0.208777182  0.046757145


 
 k-points in units of 2pi/SCALE and weight: K-Spacing Value to Generate K-Mesh: 0.04
   0.00000000  0.00000000  0.00000000       0.016
   0.02260079  0.01304858 -0.00000000       0.016
   0.04520158  0.02609715 -0.00000000       0.016
   0.06780237  0.03914573 -0.00000000       0.016
   0.09040317  0.05219430 -0.00000000       0.016
  -0.06780237 -0.03914573  0.00000000       0.016
  -0.04520158 -0.02609715  0.00000000       0.016
  -0.02260079 -0.01304858 -0.00000000       0.016
  -0.00000000  0.02609715 -0.00000000       0.016
   0.02260079  0.03914572 -0.00000000       0.016
   0.04520158  0.05219430 -0.00000000       0.016
   0.06780237  0.06524288 -0.00000000       0.016
   0.09040317  0.07829145 -0.00000000       0.016
  -0.06780238 -0.01304858  0.00000000       0.016
  -0.04520158 -0.00000000 -0.00000000       0.016
  -0.02260079  0.01304857 -0.00000000       0.016
  -0.00000000  0.05219430 -0.00000000       0.016
   0.02260079  0.06524287 -0.00000000       0.016
   0.04520158  0.07829145 -0.00000000       0.016
   0.06780237  0.09134002 -0.00000000       0.016
   0.09040316  0.10438860 -0.00000000       0.016
  -0.06780238  0.01304857 -0.00000000       0.016
  -0.04520159  0.02609714 -0.00000000       0.016
  -0.02260079  0.03914572 -0.00000000       0.016
  -0.00000000  0.07829144 -0.00000000       0.016
   0.02260079  0.09134002 -0.00000000       0.016
   0.04520158  0.10438860 -0.00000000       0.016
   0.06780237  0.11743717 -0.00000000       0.016
   0.09040316  0.13048575 -0.00000000       0.016
  -0.06780238  0.03914572 -0.00000000       0.016
  -0.04520159  0.05219429 -0.00000000       0.016
  -0.02260079  0.06524287 -0.00000000       0.016
  -0.00000000  0.10438859 -0.00000000       0.016
   0.02260079  0.11743717 -0.00000000       0.016
   0.04520158  0.13048574 -0.00000000       0.016
   0.06780237  0.14353432 -0.00000000       0.016
   0.09040316  0.15658289 -0.00000000       0.016
  -0.06780238  0.06524286 -0.00000000       0.016
  -0.04520159  0.07829144 -0.00000000       0.016
  -0.02260080  0.09134001 -0.00000000       0.016
   0.00000000 -0.07829144  0.00000000       0.016
   0.02260079 -0.06524287  0.00000000       0.016
   0.04520159 -0.05219429 -0.00000000       0.016
   0.06780238 -0.03914572 -0.00000000       0.016
   0.09040317 -0.02609714 -0.00000000       0.016
  -0.06780237 -0.11743717  0.00000000       0.016
  -0.04520158 -0.10438860  0.00000000       0.016
  -0.02260079 -0.09134002  0.00000000       0.016
   0.00000000 -0.05219430  0.00000000       0.016
   0.02260079 -0.03914572  0.00000000       0.016
   0.04520159 -0.02609714 -0.00000000       0.016
   0.06780238 -0.01304857 -0.00000000       0.016
   0.09040317  0.00000001 -0.00000000       0.016
  -0.06780237 -0.09134002  0.00000000       0.016
  -0.04520158 -0.07829145  0.00000000       0.016
  -0.02260079 -0.06524287  0.00000000       0.016
   0.00000000 -0.02609715  0.00000000       0.016
   0.02260079 -0.01304857 -0.00000000       0.016
   0.04520158  0.00000000 -0.00000000       0.016
   0.06780238  0.01304858 -0.00000000       0.016
   0.09040317  0.02609716 -0.00000000       0.016
  -0.06780237 -0.06524288  0.00000000       0.016
  -0.04520158 -0.05219430  0.00000000       0.016
  -0.02260079 -0.03914572 -0.00000000       0.016
 
 k-points in reciprocal lattice and weights: K-Spacing Value to Generate K-Mesh: 0.04
   0.00000000  0.00000000  0.00000000       0.016
   0.12500000 -0.00000000 -0.00000000       0.016
   0.25000000 -0.00000000 -0.00000000       0.016
   0.37500000 -0.00000000 -0.00000000       0.016
   0.50000000 -0.00000000 -0.00000000       0.016
  -0.37500000  0.00000000 -0.00000000       0.016
  -0.25000000  0.00000000 -0.00000000       0.016
  -0.12500000  0.00000000 -0.00000000       0.016
  -0.00000000  0.12500000  0.00000000       0.016
   0.12500000  0.12500000 -0.00000000       0.016
   0.25000000  0.12500000 -0.00000000       0.016
   0.37500000  0.12500000 -0.00000000       0.016
   0.50000000  0.12500000 -0.00000000       0.016
  -0.37500000  0.12500000 -0.00000000       0.016
  -0.25000000  0.12500000 -0.00000000       0.016
  -0.12500000  0.12500000 -0.00000000       0.016
  -0.00000000  0.25000000  0.00000000       0.016
   0.12500000  0.25000000 -0.00000000       0.016
   0.25000000  0.25000000 -0.00000000       0.016
   0.37500000  0.25000000 -0.00000000       0.016
   0.50000000  0.25000000 -0.00000000       0.016
  -0.37500000  0.25000000 -0.00000000       0.016
  -0.25000000  0.25000000 -0.00000000       0.016
  -0.12500000  0.25000000 -0.00000000       0.016
   0.00000000  0.37500000  0.00000000       0.016
   0.12500000  0.37500000 -0.00000000       0.016
   0.25000000  0.37500000 -0.00000000       0.016
   0.37500000  0.37500000 -0.00000000       0.016
   0.50000000  0.37500000 -0.00000000       0.016
  -0.37500000  0.37500000 -0.00000000       0.016
  -0.25000000  0.37500000 -0.00000000       0.016
  -0.12500000  0.37500000 -0.00000000       0.016
  -0.00000000  0.50000000  0.00000000       0.016
   0.12500000  0.50000000 -0.00000000       0.016
   0.25000000  0.50000000 -0.00000000       0.016
   0.37500000  0.50000000 -0.00000000       0.016
   0.50000000  0.50000000 -0.00000000       0.016
  -0.37500000  0.50000000 -0.00000000       0.016
  -0.25000000  0.50000000 -0.00000000       0.016
  -0.12500000  0.50000000 -0.00000000       0.016
  -0.00000000 -0.37500000  0.00000000       0.016
   0.12500000 -0.37500000 -0.00000000       0.016
   0.25000000 -0.37500000 -0.00000000       0.016
   0.37500000 -0.37500000 -0.00000000       0.016
   0.50000000 -0.37500000 -0.00000000       0.016
  -0.37500000 -0.37500000 -0.00000000       0.016
  -0.25000000 -0.37500000 -0.00000000       0.016
  -0.12500000 -0.37500000 -0.00000000       0.016
   0.00000000 -0.25000000  0.00000000       0.016
   0.12500000 -0.25000000 -0.00000000       0.016
   0.25000000 -0.25000000 -0.00000000       0.016
   0.37500000 -0.25000000 -0.00000000       0.016
   0.50000000 -0.25000000 -0.00000000       0.016
  -0.37500000 -0.25000000 -0.00000000       0.016
  -0.25000000 -0.25000000 -0.00000000       0.016
  -0.12500000 -0.25000000 -0.00000000       0.016
   0.00000000 -0.12500000  0.00000000       0.016
   0.12500000 -0.12500000 -0.00000000       0.016
   0.25000000 -0.12500000 -0.00000000       0.016
   0.37500000 -0.12500000 -0.00000000       0.016
   0.50000000 -0.12500000 -0.00000000       0.016
  -0.37500000 -0.12500000 -0.00000000       0.016
  -0.25000000 -0.12500000 -0.00000000       0.016
  -0.12500000 -0.12500000 -0.00000000       0.016
 
 position of ions in fractional coordinates (direct lattice) 
   0.00000000  0.00000000  0.35935528
   0.50000000  0.50000000  0.55687029
   1.00000000  0.50000000  0.55687029
   0.50000000  0.00000000  0.55687029
   0.00000000  0.00000000  0.56072489
   0.66666698  0.33333299  0.66379095
   0.33333299  0.66666698  0.45231932
   0.33333299  0.66666698  0.66379095
   0.66666698  0.33333299  0.45231932
 
 position of ions in cartesian coordinates  (Angst):
   0.00000000  0.00000000  7.68556939
   1.38269467  2.39489779 11.90984380
   4.14808447  2.39489789 11.90984380
   2.76538980  0.00000010 11.90984380
   0.00000000  0.00000000 11.99228257
   2.76539237  1.59659693 14.19656731
  -0.00000311  3.19319850  9.67380119
  -0.00000311  3.19319850 14.19656731
   2.76539237  1.59659693  9.67380119
 
 Euler angles ALPHA=     0.0000000  BETA=     0.0000000

 transformation matrix from SAXIS to cartesian coordinates
 ---------------------------------------------------------
     1.0000000 m_x     0.0000000 m_y     0.0000000 m_z
     0.0000000 m_x     1.0000000 m_y     0.0000000 m_z
     0.0000000 m_x     0.0000000 m_y     1.0000000 m_z

 transformation matrix from cartesian coordinates to SAXIS
 ---------------------------------------------------------
     1.0000000 m_x     0.0000000 m_y     0.0000000 m_z
     0.0000000 m_x     1.0000000 m_y     0.0000000 m_z
     0.0000000 m_x     0.0000000 m_y     1.0000000 m_z




--------------------------------------------------------------------------------------------------------


 k-point   1 :   0.0000 0.0000 0.0000  plane waves:   28750
 k-point   2 :   0.1250-0.0000-0.0000  plane waves:   28698
 k-point   3 :   0.2500-0.0000-0.0000  plane waves:   28730
 k-point   4 :   0.3750-0.0000-0.0000  plane waves:   28768
 k-point   5 :   0.5000-0.0000-0.0000  plane waves:   28768
 k-point   6 :  -0.3750 0.0000-0.0000  plane waves:   28768
 k-point   7 :  -0.2500 0.0000-0.0000  plane waves:   28730
 k-point   8 :  -0.1250 0.0000-0.0000  plane waves:   28698
 k-point   9 :  -0.0000 0.1250 0.0000  plane waves:   28698
 k-point  10 :   0.1250 0.1250-0.0000  plane waves:   28676
 k-point  11 :   0.2500 0.1250-0.0000  plane waves:   28758
 k-point  12 :   0.3750 0.1250-0.0000  plane waves:   28800
 k-point  13 :   0.5000 0.1250-0.0000  plane waves:   28800
 k-point  14 :  -0.3750 0.1250-0.0000  plane waves:   28758
 k-point  15 :  -0.2500 0.1250-0.0000  plane waves:   28676
 k-point  16 :  -0.1250 0.1250-0.0000  plane waves:   28698
 k-point  17 :  -0.0000 0.2500 0.0000  plane waves:   28730
 k-point  18 :   0.1250 0.2500-0.0000  plane waves:   28758
 k-point  19 :   0.2500 0.2500-0.0000  plane waves:   28756
 k-point  20 :   0.3750 0.2500-0.0000  plane waves:   28860
 k-point  21 :   0.5000 0.2500-0.0000  plane waves:   28756
 k-point  22 :  -0.3750 0.2500-0.0000  plane waves:   28758
 k-point  23 :  -0.2500 0.2500-0.0000  plane waves:   28730
 k-point  24 :  -0.1250 0.2500-0.0000  plane waves:   28676
 k-point  25 :   0.0000 0.3750 0.0000  plane waves:   28768
 k-point  26 :   0.1250 0.3750-0.0000  plane waves:   28800
 k-point  27 :   0.2500 0.3750-0.0000  plane waves:   28860
 k-point  28 :   0.3750 0.3750-0.0000  plane waves:   28860
 k-point  29 :   0.5000 0.3750-0.0000  plane waves:   28800
 k-point  30 :  -0.3750 0.3750-0.0000  plane waves:   28768
 k-point  31 :  -0.2500 0.3750-0.0000  plane waves:   28758
 k-point  32 :  -0.1250 0.3750-0.0000  plane waves:   28758
 k-point  33 :  -0.0000 0.5000 0.0000  plane waves:   28768
 k-point  34 :   0.1250 0.5000-0.0000  plane waves:   28800
 k-point  35 :   0.2500 0.5000-0.0000  plane waves:   28756
 k-point  36 :   0.3750 0.5000-0.0000  plane waves:   28800
 k-point  37 :   0.5000 0.5000-0.0000  plane waves:   28768
 k-point  38 :  -0.3750 0.5000-0.0000  plane waves:   28800
 k-point  39 :  -0.2500 0.5000-0.0000  plane waves:   28756
 k-point  40 :  -0.1250 0.5000-0.0000  plane waves:   28800
 k-point  41 :  -0.0000-0.3750 0.0000  plane waves:   28768
 k-point  42 :   0.1250-0.3750-0.0000  plane waves:   28758
 k-point  43 :   0.2500-0.3750-0.0000  plane waves:   28758
 k-point  44 :   0.3750-0.3750-0.0000  plane waves:   28768
 k-point  45 :   0.5000-0.3750-0.0000  plane waves:   28800
 k-point  46 :  -0.3750-0.3750-0.0000  plane waves:   28860
 k-point  47 :  -0.2500-0.3750-0.0000  plane waves:   28860
 k-point  48 :  -0.1250-0.3750-0.0000  plane waves:   28800
 k-point  49 :   0.0000-0.2500 0.0000  plane waves:   28730
 k-point  50 :   0.1250-0.2500-0.0000  plane waves:   28676
 k-point  51 :   0.2500-0.2500-0.0000  plane waves:   28730
 k-point  52 :   0.3750-0.2500-0.0000  plane waves:   28758
 k-point  53 :   0.5000-0.2500-0.0000  plane waves:   28756
 k-point  54 :  -0.3750-0.2500-0.0000  plane waves:   28860
 k-point  55 :  -0.2500-0.2500-0.0000  plane waves:   28756
 k-point  56 :  -0.1250-0.2500-0.0000  plane waves:   28758
 k-point  57 :   0.0000-0.1250 0.0000  plane waves:   28698
 k-point  58 :   0.1250-0.1250-0.0000  plane waves:   28698
 k-point  59 :   0.2500-0.1250-0.0000  plane waves:   28676
 k-point  60 :   0.3750-0.1250-0.0000  plane waves:   28758
 k-point  61 :   0.5000-0.1250-0.0000  plane waves:   28800
 k-point  62 :  -0.3750-0.1250-0.0000  plane waves:   28800
 k-point  63 :  -0.2500-0.1250-0.0000  plane waves:   28758
 k-point  64 :  -0.1250-0.1250-0.0000  plane waves:   28676

 maximum and minimum number of plane-waves per node :      2930     2830

 maximum number of plane-waves:     28860
 maximum index in each direction: 
   IXMAX=   10   IYMAX=   10   IZMAX=   38
   IXMIN=  -10   IYMIN=  -10   IZMIN=  -38


 total amount of memory used by VASP MPI-rank0   156603. kBytes
=======================================================================

   base      :      30000. kBytes
   nonl-proj :      40465. kBytes
   fftplans  :       6616. kBytes
   grid      :       6912. kBytes
   one-center:         62. kBytes
   wavefun   :      72548. kBytes
 
     INWAV:  cpu time      0.0000: real time      0.0002
 Broyden mixing: mesh for mixing (old mesh)
   NGX = 21   NGY = 21   NGZ = 77
  (NGX  = 60   NGY  = 60   NGZ  =240)
  gives a total of  33957 points

 initial charge density was supplied:
 charge density of overlapping atoms calculated
 number of electron      73.0000000 magnetization       9.0000000      9.0000000      9.0000000
 keeping initial charge density in first step


--------------------------------------------------------------------------------------------------------


 Maximum index for augmentation-charges         2107 (set IRDMAX)


--------------------------------------------------------------------------------------------------------


 First call to EWALD:  gamma=   0.214
 Maximum number of real-space cells 4x 4x 1
 Maximum number of reciprocal cells 2x 2x 6

    FEWALD:  cpu time      0.0031: real time      0.0031


--------------------------------------- Ionic step        1  -------------------------------------------




--------------------------------------- Iteration      1(   1)  ---------------------------------------


    POTLOK:  cpu time      0.4300: real time      0.4363
    SETDIJ:  cpu time      0.3172: real time      0.3217
     EDDAV:  cpu time     34.7400: real time     34.9925
       DOS:  cpu time      0.0081: real time      0.0099
    --------------------------------------------
      LOOP:  cpu time     35.4953: real time     35.7604

 eigenvalue-minimisations  : 15664
 total energy-change (2. order) : 0.6031732E+03  (-0.3409242E+04)
 number of electron      73.0000000 magnetization       9.0000000      9.0000000      9.0000000
 augmentation part       73.0000000 magnetization       9.0000000      9.0000000      9.0000000

 Free energy of the ion-electron system (eV)
  ---------------------------------------------------
  alpha Z        PSCENC =        54.38447530
  Ewald energy   TEWEN  =     11921.44313123
  -Hartree energ DENC   =    -18091.29107978
  -exchange      EXHF   =         0.00000000
  -V(xc)+E(xc)   XCENC  =        -3.50161442
  PAW double counting   =      5878.93177344    -5648.43999914
  entropy T*S    EENTRO =        -0.00680816
  eigenvalues    EBANDS =      -670.10706857
  atomic energy  EATOM  =      7161.76039134
  Solvation  Ediel_sol  =         0.00000000
  ---------------------------------------------------
  free energy    TOTEN  =       603.17320125 eV

  energy without entropy =      603.18000940  energy(sigma->0) =      603.17660532


--------------------------------------------------------------------------------------------------------




--------------------------------------- Iteration      1(   2)  ---------------------------------------


     EDDAV:  cpu time     32.8484: real time     33.0295
       DOS:  cpu time      0.0076: real time      0.0076
    --------------------------------------------
      LOOP:  cpu time     32.8560: real time     33.0371

 eigenvalue-minimisations  : 14520
 total energy-change (2. order) :-0.6007456E+03  (-0.5797026E+03)
 number of electron      73.0000000 magnetization       9.0000000      9.0000000      9.0000000
 augmentation part       73.0000000 magnetization       9.0000000      9.0000000      9.0000000

 Free energy of the ion-electron system (eV)
  ---------------------------------------------------
  alpha Z        PSCENC =        54.38447530
  Ewald energy   TEWEN  =     11921.44313123
  -Hartree energ DENC   =    -18091.29107978
  -exchange      EXHF   =         0.00000000
  -V(xc)+E(xc)   XCENC  =        -3.50161442
  PAW double counting   =      5878.93177344    -5648.43999914
  entropy T*S    EENTRO =        -0.00467534
  eigenvalues    EBANDS =     -1270.85481426
  atomic energy  EATOM  =      7161.76039134
  Solvation  Ediel_sol  =         0.00000000
  ---------------------------------------------------
  free energy    TOTEN  =         2.42758836 eV

  energy without entropy =        2.43226370  energy(sigma->0) =        2.42992603


--------------------------------------------------------------------------------------------------------




--------------------------------------- Iteration      1(   3)  ---------------------------------------


     EDDAV:  cpu time     35.0012: real time     35.2080
       DOS:  cpu time      0.0093: real time      0.0093
    --------------------------------------------
      LOOP:  cpu time     35.0105: real time     35.2173

 eigenvalue-minimisations  : 15368
 total energy-change (2. order) :-0.5192140E+02  (-0.5079407E+02)
 number of electron      73.0000000 magnetization       9.0000000      9.0000000      9.0000000
 augmentation part       73.0000000 magnetization       9.0000000      9.0000000      9.0000000

 Free energy of the ion-electron system (eV)
  ---------------------------------------------------
  alpha Z        PSCENC =        54.38447530
  Ewald energy   TEWEN  =     11921.44313123
  -Hartree energ DENC   =    -18091.29107978
  -exchange      EXHF   =         0.00000000
  -V(xc)+E(xc)   XCENC  =        -3.50161442
  PAW double counting   =      5878.93177344    -5648.43999914
  entropy T*S    EENTRO =        -0.00510322
  eigenvalues    EBANDS =     -1322.77578142
  atomic energy  EATOM  =      7161.76039134
  Solvation  Ediel_sol  =         0.00000000
  ---------------------------------------------------
  free energy    TOTEN  =       -49.49380667 eV

  energy without entropy =      -49.48870345  energy(sigma->0) =      -49.49125506


--------------------------------------------------------------------------------------------------------




--------------------------------------- Iteration      1(   4)  ---------------------------------------


     EDDAV:  cpu time     35.3393: real time     35.5355
       DOS:  cpu time      0.0092: real time      0.0093
    --------------------------------------------
      LOOP:  cpu time     35.3485: real time     35.5448

 eigenvalue-minimisations  : 16192
 total energy-change (2. order) :-0.2248138E+01  (-0.2222757E+01)
 number of electron      73.0000000 magnetization       9.0000000      9.0000000      9.0000000
 augmentation part       73.0000000 magnetization       9.0000000      9.0000000      9.0000000

 Free energy of the ion-electron system (eV)
  ---------------------------------------------------
  alpha Z        PSCENC =        54.38447530
  Ewald energy   TEWEN  =     11921.44313123
  -Hartree energ DENC   =    -18091.29107978
  -exchange      EXHF   =         0.00000000
  -V(xc)+E(xc)   XCENC  =        -3.50161442
  PAW double counting   =      5878.93177344    -5648.43999914
  entropy T*S    EENTRO =        -0.00582224
  eigenvalues    EBANDS =     -1325.02320025
  atomic energy  EATOM  =      7161.76039134
  Solvation  Ediel_sol  =         0.00000000
  ---------------------------------------------------
  free energy    TOTEN  =       -51.74194453 eV

  energy without entropy =      -51.73612229  energy(sigma->0) =      -51.73903341


--------------------------------------------------------------------------------------------------------




--------------------------------------- Iteration      1(   5)  ---------------------------------------


     EDDAV:  cpu time     35.7183: real time     35.9081
       DOS:  cpu time      0.0104: real time      0.0104



 total charge

# of ion       s       p       d       tot
------------------------------------------
    1        1.822   4.644   0.027   6.493
    2        2.262   6.235   2.571  11.068
    3        2.262   6.235   2.570  11.067
    4        2.262   6.235   2.571  11.068
    5        1.140   1.491   0.071   2.702
    6        1.228   1.267   0.045   2.540
    7        1.214   1.442   0.050   2.705
    8        1.228   1.267   0.045   2.540
    9        1.214   1.442   0.050   2.706
--------------------------------------------------
tot         14.630  30.258   8.000  52.888



 magnetization (x)

# of ion       s       p       d       tot
------------------------------------------
    1        0.033   0.015   0.000   0.048
    2       -0.002   0.001   0.223   0.222
    3       -0.002   0.001   0.222   0.221
    4       -0.002   0.001   0.224   0.223
    5        0.001   0.055   0.002   0.058
    6        0.006   0.045   0.002   0.052
    7        0.004   0.048   0.002   0.054
    8        0.006   0.045   0.002   0.052
    9        0.004   0.048   0.002   0.054
--------------------------------------------------
tot          0.047   0.259   0.680   0.985



 magnetization (y)

# of ion       s       p       d       tot
------------------------------------------
    1        0.033   0.015   0.000   0.048
    2       -0.002   0.001   0.224   0.223
    3       -0.002   0.001   0.223   0.222
    4       -0.002   0.001   0.222   0.221
    5        0.001   0.055   0.002   0.058
    6        0.006   0.045   0.002   0.052
    7        0.004   0.048   0.002   0.054
    8        0.006   0.045   0.002   0.052
    9        0.004   0.048   0.002   0.054
--------------------------------------------------
tot          0.047   0.259   0.680   0.985



 magnetization (z)

# of ion       s       p       d       tot
------------------------------------------
    1        0.033   0.015   0.000   0.048
    2       -0.002   0.001   0.222   0.221
    3       -0.002   0.001   0.223   0.221
    4       -0.002   0.001   0.222   0.221
    5        0.001   0.056   0.002   0.059
    6        0.006   0.045   0.002   0.053
    7        0.004   0.049   0.002   0.055
    8        0.006   0.045   0.002   0.053
    9        0.004   0.049   0.002   0.055
--------------------------------------------------
tot          0.047   0.260   0.678   0.985
 
    CHARGE:  cpu time      1.9599: real time      1.9715
    MIXING:  cpu time      0.0652: real time      0.0667
    --------------------------------------------
      LOOP:  cpu time     37.7538: real time     37.9567

 eigenvalue-minimisations  : 15904
 total energy-change (2. order) :-0.6231736E-01  (-0.6217152E-01)
 number of electron      72.9999998 magnetization       8.0245727      8.0245649      8.0246525
 augmentation part        6.7192335 magnetization       7.0883648      7.0884141      7.0864939

 Broyden mixing:
  rms(total) = 0.33035E+01    rms(broyden)= 0.33034E+01
  rms(prec ) = 0.33579E+01
  weight for this iteration     100.00

 Free energy of the ion-electron system (eV)
  ---------------------------------------------------
  alpha Z        PSCENC =        54.38447530
  Ewald energy   TEWEN  =     11921.44313123
  -Hartree energ DENC   =    -18091.29107978
  -exchange      EXHF   =         0.00000000
  -V(xc)+E(xc)   XCENC  =        -3.50161442
  PAW double counting   =      5878.93177344    -5648.43999914
  entropy T*S    EENTRO =        -0.00584770
  eigenvalues    EBANDS =     -1325.08549216
  atomic energy  EATOM  =      7161.76039134
  Solvation  Ediel_sol  =         0.00000000
  ---------------------------------------------------
  free energy    TOTEN  =       -51.80426189 eV

  energy without entropy =      -51.79841419  energy(sigma->0) =      -51.80133804


--------------------------------------------------------------------------------------------------------




--------------------------------------- Iteration      1(   6)  ---------------------------------------


    POTLOK:  cpu time      0.3923: real time      0.4009
    SETDIJ:  cpu time      0.2936: real time      0.2950
     EDDAV:  cpu time     33.3598: real time     33.5346
       DOS:  cpu time      0.0115: real time      0.0115
    CHARGE:  cpu time      2.0286: real time      2.0359
    MIXING:  cpu time      0.0040: real time      0.0040
    --------------------------------------------
      LOOP:  cpu time     36.0898: real time     36.2819

 eigenvalue-minimisations  : 13776
 total energy-change (2. order) : 0.1019011E+02  (-0.7677137E+01)
 number of electron      72.9999998 magnetization       7.5159565      7.5159627      7.5163941
 augmentation part       11.0886119 magnetization       6.0359610      6.0367229      6.0350330

 Broyden mixing:
  rms(total) = 0.19730E+01    rms(broyden)= 0.19730E+01
  rms(prec ) = 0.23030E+01
  weight for this iteration     100.00

 eigenvalues of (default mixing * dielectric matrix)
  average eigenvalue GAMMA=   0.6936
  0.6936

 Free energy of the ion-electron system (eV)
  ---------------------------------------------------
  alpha Z        PSCENC =        54.38447530
  Ewald energy   TEWEN  =     11921.44313123
  -Hartree energ DENC   =    -18000.78341472
  -exchange      EXHF   =         0.00000000
  -V(xc)+E(xc)   XCENC  =        -1.67712735
  PAW double counting   =      6689.00598432    -6460.65081759
  entropy T*S    EENTRO =        -0.00727631
  eigenvalues    EBANDS =     -1405.08949592
  atomic energy  EATOM  =      7161.76039134
  Solvation  Ediel_sol  =         0.00000000
  ---------------------------------------------------
  free energy    TOTEN  =       -41.61414970 eV

  energy without entropy =      -41.60687339  energy(sigma->0) =      -41.61051154


--------------------------------------------------------------------------------------------------------




--------------------------------------- Iteration      1(   7)  ---------------------------------------


    POTLOK:  cpu time      0.3867: real time      0.3920
    SETDIJ:  cpu time      0.2850: real time      0.2863
     EDDAV:  cpu time     34.6097: real time     34.7895
       DOS:  cpu time      0.0104: real time      0.0104
    CHARGE:  cpu time      1.9169: real time      1.9240
    MIXING:  cpu time      0.0053: real time      0.0053
    --------------------------------------------
      LOOP:  cpu time     37.2139: real time     37.4075

 eigenvalue-minimisations  : 15632
 total energy-change (2. order) : 0.3484890E+00  (-0.6126512E+01)
 number of electron      72.9999998 magnetization       6.8159898      6.8157909      6.8161339
 augmentation part        6.2993153 magnetization       5.4054533      5.4078037      5.4119669

 Broyden mixing:
  rms(total) = 0.20669E+01    rms(broyden)= 0.20668E+01
  rms(prec ) = 0.22255E+01
  weight for this iteration     100.00

 eigenvalues of (default mixing * dielectric matrix)
  average eigenvalue GAMMA=   0.6437
  0.9617  0.3258

 Free energy of the ion-electron system (eV)
  ---------------------------------------------------
  alpha Z        PSCENC =        54.38447530
  Ewald energy   TEWEN  =     11921.44313123
  -Hartree energ DENC   =    -18186.14911417
  -exchange      EXHF   =         0.00000000
  -V(xc)+E(xc)   XCENC  =         1.70184082
  PAW double counting   =      7043.91666654    -6816.53998338
  entropy T*S    EENTRO =        -0.00754813
  eigenvalues    EBANDS =     -1221.77552023
  atomic energy  EATOM  =      7161.76039134
  Solvation  Ediel_sol  =         0.00000000
  ---------------------------------------------------
  free energy    TOTEN  =       -41.26566067 eV

  energy without entropy =      -41.25811254  energy(sigma->0) =      -41.26188660


--------------------------------------------------------------------------------------------------------




--------------------------------------- Iteration      1(   8)  ---------------------------------------


    POTLOK:  cpu time      0.3476: real time      0.3554
    SETDIJ:  cpu time      0.2828: real time      0.2841
     EDDAV:  cpu time     34.5614: real time     34.7457
       DOS:  cpu time      0.0093: real time      0.0093
    CHARGE:  cpu time      1.9810: real time      1.9882
    MIXING:  cpu time      0.0046: real time      0.0046
    --------------------------------------------
      LOOP:  cpu time     37.1867: real time     37.3873

 eigenvalue-minimisations  : 14968
 total energy-change (2. order) : 0.6203274E+01  (-0.1270764E+01)
 number of electron      72.9999998 magnetization       6.0368879      6.0367737      6.0374541
 augmentation part        7.4452015 magnetization       4.8832984      4.8833106      4.8828982

 Broyden mixing:
  rms(total) = 0.10403E+01    rms(broyden)= 0.10403E+01
  rms(prec ) = 0.10814E+01
  weight for this iteration     100.00

 eigenvalues of (default mixing * dielectric matrix)
  average eigenvalue GAMMA=   0.7443
  1.2608  0.4860  0.4860

 Free energy of the ion-electron system (eV)
  ---------------------------------------------------
  alpha Z        PSCENC =        54.38447530
  Ewald energy   TEWEN  =     11921.44313123
  -Hartree energ DENC   =    -18140.25122734
  -exchange      EXHF   =         0.00000000
  -V(xc)+E(xc)   XCENC  =         1.85138291
  PAW double counting   =      7563.18442671    -7337.16871326
  entropy T*S    EENTRO =        -0.00886905
  eigenvalues    EBANDS =     -1260.25738451
  atomic energy  EATOM  =      7161.76039134
  Solvation  Ediel_sol  =         0.00000000
  ---------------------------------------------------
  free energy    TOTEN  =       -35.06238667 eV

  energy without entropy =      -35.05351762  energy(sigma->0) =      -35.05795214


--------------------------------------------------------------------------------------------------------




--------------------------------------- Iteration      1(   9)  ---------------------------------------


    POTLOK:  cpu time      0.3523: real time      0.3570
    SETDIJ:  cpu time      0.2812: real time      0.2825
     EDDAV:  cpu time     37.1998: real time     37.3942
       DOS:  cpu time      0.0095: real time      0.0096
    CHARGE:  cpu time      1.9875: real time      1.9968
    MIXING:  cpu time      0.0061: real time      0.0062
    --------------------------------------------
      LOOP:  cpu time     39.8364: real time     40.0463

 eigenvalue-minimisations  : 16656
 total energy-change (2. order) : 0.1295463E+01  (-0.3572974E+00)
 number of electron      72.9999998 magnetization       5.1327839      5.1327127      5.1342797
 augmentation part        8.1873669 magnetization       3.9277056      3.9277841      3.9260993

 Broyden mixing:
  rms(total) = 0.60353E+00    rms(broyden)= 0.60353E+00
  rms(prec ) = 0.61516E+00
  weight for this iteration     100.00

 eigenvalues of (default mixing * dielectric matrix)
  average eigenvalue GAMMA=   0.8836
  1.8181  0.3994  0.6584  0.6584

 Free energy of the ion-electron system (eV)
  ---------------------------------------------------
  alpha Z        PSCENC =        54.38447530
  Ewald energy   TEWEN  =     11921.44313123
  -Hartree energ DENC   =    -18143.57208721
  -exchange      EXHF   =         0.00000000
  -V(xc)+E(xc)   XCENC  =         1.61481532
  PAW double counting   =      7787.97860404    -7563.17878331
  entropy T*S    EENTRO =        -0.00838667
  eigenvalues    EBANDS =     -1254.18908348
  atomic energy  EATOM  =      7161.76039134
  Solvation  Ediel_sol  =         0.00000000
  ---------------------------------------------------
  free energy    TOTEN  =       -33.76692344 eV

  energy without entropy =      -33.75853677  energy(sigma->0) =      -33.76273010


--------------------------------------------------------------------------------------------------------




--------------------------------------- Iteration      1(  10)  ---------------------------------------


    POTLOK:  cpu time      0.3467: real time      0.3541
    SETDIJ:  cpu time      0.2945: real time      0.2958
     EDDAV:  cpu time     36.7739: real time     36.9648
       DOS:  cpu time      0.0108: real time      0.0108



 total charge

# of ion       s       p       d       tot
------------------------------------------
    1        1.857   4.741   0.048   6.647
    2        2.245   6.193   2.846  11.283
    3        2.250   6.196   3.289  11.735
    4        2.249   6.196   3.257  11.702
    5        1.136   1.298   0.054   2.487
    6        1.228   1.213   0.036   2.477
    7        1.189   1.301   0.038   2.528
    8        1.228   1.213   0.036   2.476
    9        1.189   1.301   0.038   2.528
--------------------------------------------------
tot         14.570  29.652   9.642  53.864



 magnetization (x)

# of ion       s       p       d       tot
------------------------------------------
    1       -0.008  -0.058   0.012  -0.054
    2       -0.005  -0.004  -0.103  -0.113
    3       -0.006  -0.004  -0.097  -0.107
    4       -0.006  -0.004  -0.094  -0.103
    5       -0.007   0.092   0.004   0.088
    6       -0.021   0.044   0.000   0.023
    7       -0.019   0.022   0.002   0.005
    8       -0.021   0.044   0.000   0.023
    9       -0.019   0.022   0.002   0.005
--------------------------------------------------
tot         -0.114   0.155  -0.274  -0.232



 magnetization (y)

# of ion       s       p       d       tot
------------------------------------------
    1       -0.008  -0.058   0.012  -0.054
    2       -0.005  -0.004  -0.103  -0.112
    3       -0.006  -0.004  -0.095  -0.105
    4       -0.006  -0.004  -0.097  -0.107
    5       -0.007   0.092   0.004   0.088
    6       -0.021   0.044   0.000   0.023
    7       -0.019   0.022   0.002   0.005
    8       -0.021   0.044   0.000   0.023
    9       -0.019   0.022   0.002   0.005
--------------------------------------------------
tot         -0.114   0.155  -0.274  -0.233



 magnetization (z)

# of ion       s       p       d       tot
------------------------------------------
    1       -0.008  -0.058   0.012  -0.054
    2       -0.005  -0.004  -0.103  -0.112
    3       -0.006  -0.004  -0.094  -0.103
    4       -0.006  -0.004  -0.094  -0.104
    5       -0.007   0.091   0.004   0.088
    6       -0.021   0.044   0.000   0.023
    7       -0.019   0.023   0.002   0.005
    8       -0.021   0.044   0.000   0.023
    9       -0.019   0.022   0.002   0.005
--------------------------------------------------
tot         -0.114   0.155  -0.270  -0.229
 
    CHARGE:  cpu time      2.0295: real time      2.0369
    MIXING:  cpu time      0.0051: real time      0.0051
    --------------------------------------------
      LOOP:  cpu time     39.4605: real time     39.6675

 eigenvalue-minimisations  : 16448
 total energy-change (2. order) :-0.7431479E+00  (-0.7666089E-01)
 number of electron      72.9999998 magnetization       4.5545052      4.5543913      4.5563051
 augmentation part        8.3203608 magnetization       3.3470660      3.3470035      3.3483637

 Broyden mixing:
  rms(total) = 0.56037E+00    rms(broyden)= 0.56036E+00
  rms(prec ) = 0.57935E+00
  weight for this iteration     100.00

 eigenvalues of (default mixing * dielectric matrix)
  average eigenvalue GAMMA=   0.8956
  2.0106  0.7776  0.7776  0.4078  0.5045

 Free energy of the ion-electron system (eV)
  ---------------------------------------------------
  alpha Z        PSCENC =        54.38447530
  Ewald energy   TEWEN  =     11921.44313123
  -Hartree energ DENC   =    -18162.86485203
  -exchange      EXHF   =         0.00000000
  -V(xc)+E(xc)   XCENC  =         0.95193910
  PAW double counting   =      7900.86239478    -7676.85529762
  entropy T*S    EENTRO =        -0.00862023
  eigenvalues    EBANDS =     -1234.18363317
  atomic energy  EATOM  =      7161.76039134
  Solvation  Ediel_sol  =         0.00000000
  ---------------------------------------------------
  free energy    TOTEN  =       -34.51007130 eV

  energy without entropy =      -34.50145107  energy(sigma->0) =      -34.50576118


--------------------------------------------------------------------------------------------------------




--------------------------------------- Iteration      1(  11)  ---------------------------------------


    POTLOK:  cpu time      0.3236: real time      0.3288
    SETDIJ:  cpu time      0.3084: real time      0.3098
     EDDAV:  cpu time     36.3955: real time     36.6124
       DOS:  cpu time      0.0079: real time      0.0080
    CHARGE:  cpu time      1.9045: real time      1.9122
    MIXING:  cpu time      0.0062: real time      0.0063
    --------------------------------------------
      LOOP:  cpu time     38.9461: real time     39.1774

 eigenvalue-minimisations  : 16064
 total energy-change (2. order) :-0.1340997E+01  (-0.1574060E+00)
 number of electron      72.9999998 magnetization       3.2989373      3.2986547      3.3013495
 augmentation part        8.3720216 magnetization       2.1767997      2.1773493      2.1788264

 Broyden mixing:
  rms(total) = 0.86458E+00    rms(broyden)= 0.86454E+00
  rms(prec ) = 0.95253E+00
  weight for this iteration     100.00

 eigenvalues of (default mixing * dielectric matrix)
  average eigenvalue GAMMA=   1.0022
  2.7691  1.3244  0.7495  0.6051  0.4033  0.1615

 Free energy of the ion-electron system (eV)
  ---------------------------------------------------
  alpha Z        PSCENC =        54.38447530
  Ewald energy   TEWEN  =     11921.44313123
  -Hartree energ DENC   =    -18172.66117700
  -exchange      EXHF   =         0.00000000
  -V(xc)+E(xc)   XCENC  =         0.40798490
  PAW double counting   =      7913.08844321    -7689.35739653
  entropy T*S    EENTRO =        -0.00864671
  eigenvalues    EBANDS =     -1224.90827409
  atomic energy  EATOM  =      7161.76039134
  Solvation  Ediel_sol  =         0.00000000
  ---------------------------------------------------
  free energy    TOTEN  =       -35.85106834 eV

  energy without entropy =      -35.84242163  energy(sigma->0) =      -35.84674498


--------------------------------------------------------------------------------------------------------




--------------------------------------- Iteration      1(  12)  ---------------------------------------


    POTLOK:  cpu time      0.3182: real time      0.3271
    SETDIJ:  cpu time      0.2813: real time      0.2827
     EDDAV:  cpu time     34.9004: real time     35.0980
       DOS:  cpu time      0.0079: real time      0.0079
    CHARGE:  cpu time      1.8793: real time      1.8869
    MIXING:  cpu time      0.0058: real time      0.0059
    --------------------------------------------
      LOOP:  cpu time     37.3929: real time     37.6084

 eigenvalue-minimisations  : 15888
 total energy-change (2. order) :-0.1790732E+01  (-0.2099013E+00)
 number of electron      72.9999998 magnetization       2.0966476      2.0961626      2.0974684
 augmentation part        8.2152582 magnetization       1.1017313      1.1013487      1.1090160

 Broyden mixing:
  rms(total) = 0.34855E+00    rms(broyden)= 0.34850E+00
  rms(prec ) = 0.36063E+00
  weight for this iteration     100.00

 eigenvalues of (default mixing * dielectric matrix)
  average eigenvalue GAMMA=   1.1674
  3.7109  1.7903  0.7605  0.7605  0.5881  0.4041  0.1570

 Free energy of the ion-electron system (eV)
  ---------------------------------------------------
  alpha Z        PSCENC =        54.38447530
  Ewald energy   TEWEN  =     11921.44313123
  -Hartree energ DENC   =    -18191.18212693
  -exchange      EXHF   =         0.00000000
  -V(xc)+E(xc)   XCENC  =        -0.38900278
  PAW double counting   =      7906.18567451    -7682.94123261
  entropy T*S    EENTRO =        -0.01072858
  eigenvalues    EBANDS =     -1206.89238207
  atomic energy  EATOM  =      7161.76039134
  Solvation  Ediel_sol  =         0.00000000
  ---------------------------------------------------
  free energy    TOTEN  =       -37.64180060 eV

  energy without entropy =      -37.63107202  energy(sigma->0) =      -37.63643631


--------------------------------------------------------------------------------------------------------




--------------------------------------- Iteration      1(  13)  ---------------------------------------


    POTLOK:  cpu time      0.3246: real time      0.3298
    SETDIJ:  cpu time      0.2821: real time      0.2835
     EDDAV:  cpu time     31.1062: real time     31.2789
       DOS:  cpu time      0.0094: real time      0.0094
    CHARGE:  cpu time      2.0490: real time      2.0570
    MIXING:  cpu time      0.0072: real time      0.0072
    --------------------------------------------
      LOOP:  cpu time     33.7784: real time     33.9658

 eigenvalue-minimisations  : 12920
 total energy-change (2. order) :-0.4193848E+01  (-0.2901309E+00)
 number of electron      72.9999998 magnetization       1.6774140      1.6768782      1.6781809
 augmentation part        8.4969196 magnetization       1.0131502      1.0122105      1.0095106

 Broyden mixing:
[...]
   56.011658    0.978726    0.978730    0.979454   -0.000004   -0.000003   -0.000003
   56.411741    0.979130    0.979133    0.979866   -0.000004   -0.000003   -0.000003
   56.811824    0.979519    0.979522    0.980263   -0.000004   -0.000003   -0.000003
   57.211907    0.979895    0.979898    0.980646   -0.000004   -0.000003   -0.000003
   57.611991    0.980259    0.980262    0.981016   -0.000004   -0.000003   -0.000003
   58.012074    0.980611    0.980614    0.981373   -0.000004   -0.000003   -0.000003
   58.412157    0.980952    0.980955    0.981718   -0.000003   -0.000003   -0.000003
   58.812240    0.981283    0.981286    0.982052   -0.000003   -0.000003   -0.000003
   59.212324    0.981603    0.981606    0.982376   -0.000003   -0.000003   -0.000003
   59.612407    0.981914    0.981917    0.982689   -0.000003   -0.000003   -0.000003
   60.012490    0.982217    0.982219    0.982992   -0.000003   -0.000003   -0.000003
   60.412574    0.982510    0.982513    0.983287   -0.000003   -0.000003   -0.000003
   60.812657    0.982796    0.982798    0.983573   -0.000003   -0.000003   -0.000003
   61.212740    0.983073    0.983076    0.983850   -0.000003   -0.000003   -0.000003
   61.612823    0.983344    0.983346    0.984120   -0.000003   -0.000003   -0.000003
   62.012907    0.983607    0.983610    0.984383   -0.000003   -0.000003   -0.000003
   62.412990    0.983864    0.983867    0.984639   -0.000003   -0.000003   -0.000002
   62.813073    0.984116    0.984118    0.984889   -0.000003   -0.000002   -0.000002
   63.213156    0.984362    0.984365    0.985134   -0.000003   -0.000002   -0.000002
   63.613240    0.984605    0.984608    0.985375   -0.000003   -0.000002   -0.000002
   64.013323    0.984850    0.984852    0.985618   -0.000003   -0.000002   -0.000002
   64.413406    0.985109    0.985111    0.985865   -0.000003   -0.000002   -0.000002
   64.813490    0.985294    0.985296    0.986057   -0.000003   -0.000002   -0.000002
   65.213573    0.985507    0.985509    0.986229   -0.000003   -0.000002   -0.000002
   65.613656    0.985668    0.985670    0.986398   -0.000003   -0.000002   -0.000002
   66.013739    0.985764    0.985766    0.986579   -0.000003   -0.000002   -0.000002
   66.413823    0.985978    0.985981    0.986784   -0.000002   -0.000002   -0.000002
   66.813906    0.986200    0.986202    0.986917   -0.000002   -0.000002   -0.000002
   67.213989    0.986404    0.986406    0.987134   -0.000002   -0.000002   -0.000002
   67.614072    0.986597    0.986599    0.987328   -0.000002   -0.000002   -0.000002
   68.014156    0.986783    0.986785    0.987512   -0.000002   -0.000002   -0.000002
   68.414239    0.986963    0.986965    0.987689   -0.000002   -0.000002   -0.000002
   68.814322    0.987139    0.987141    0.987861   -0.000002   -0.000002   -0.000002
   69.214405    0.987311    0.987312    0.988029   -0.000002   -0.000002   -0.000002
   69.614489    0.987478    0.987480    0.988192   -0.000002   -0.000002   -0.000002
   70.014572    0.987642    0.987643    0.988351   -0.000002   -0.000002   -0.000002
   70.414655    0.987801    0.987803    0.988507   -0.000002   -0.000002   -0.000002
   70.814739    0.987958    0.987960    0.988659   -0.000002   -0.000002   -0.000002
   71.214822    0.988111    0.988113    0.988808   -0.000002   -0.000002   -0.000002
   71.614905    0.988261    0.988263    0.988954   -0.000002   -0.000002   -0.000002
   72.014988    0.988408    0.988410    0.989096   -0.000002   -0.000002   -0.000002
   72.415072    0.988552    0.988553    0.989235   -0.000002   -0.000002   -0.000002
   72.815155    0.988693    0.988694    0.989372   -0.000002   -0.000002   -0.000002
   73.215238    0.988831    0.988833    0.989505   -0.000002   -0.000002   -0.000002
   73.615321    0.988966    0.988968    0.989636   -0.000002   -0.000002   -0.000002
   74.015405    0.989099    0.989101    0.989764   -0.000002   -0.000002   -0.000002
   74.415488    0.989229    0.989231    0.989890   -0.000002   -0.000002   -0.000002
   74.815571    0.989357    0.989359    0.990013   -0.000002   -0.000002   -0.000002
   75.215654    0.989482    0.989484    0.990134   -0.000002   -0.000002   -0.000002
   75.615738    0.989605    0.989607    0.990252   -0.000002   -0.000002   -0.000002
   76.015821    0.989726    0.989728    0.990369   -0.000002   -0.000002   -0.000002
   76.415904    0.989845    0.989846    0.990482   -0.000002   -0.000002   -0.000002
   76.815988    0.989961    0.989962    0.990594   -0.000002   -0.000002   -0.000002
   77.216071    0.990075    0.990077    0.990704   -0.000002   -0.000002   -0.000002
   77.616154    0.990187    0.990189    0.990812   -0.000002   -0.000002   -0.000002
   78.016237    0.990298    0.990299    0.990917   -0.000002   -0.000002   -0.000002
   78.416321    0.990406    0.990407    0.991021   -0.000002   -0.000002   -0.000002
   78.816404    0.990512    0.990513    0.991123   -0.000002   -0.000002   -0.000001
   79.216487    0.990617    0.990618    0.991223   -0.000002   -0.000002   -0.000001
   79.616570    0.990719    0.990721    0.991321   -0.000002   -0.000001   -0.000001
   80.016654    0.990820    0.990821    0.991418   -0.000002   -0.000001   -0.000001
 
 The outermost node in the dielectric function lies at epsilon=   7.1


--------------------------------------------------------------------------------------------------------


    OPTICS:  cpu time     12.9832: real time     13.1498
    4ORBIT:  cpu time      0.0000: real time      0.0000

 Spin-Orbit-Coupling matrix elements

 Ion:    1  E_soc:     -0.2880007
 l=   1
     0.0000000    -0.0479628    -0.0478441
    -0.0479628     0.0000000    -0.0479628
    -0.0478441    -0.0479628     0.0000000
 l=   2
     0.0000000    -0.0000228     0.0000000    -0.0000228    -0.0000615
    -0.0000228     0.0000000    -0.0000294    -0.0000195    -0.0000228
     0.0000000    -0.0000294     0.0000000    -0.0000294     0.0000000
    -0.0000228    -0.0000195    -0.0000294     0.0000000    -0.0000228
    -0.0000615    -0.0000228     0.0000000    -0.0000228     0.0000000
 l=   3
     0.0000000     0.0000000     0.0000000     0.0000000     0.0000000     0.0000000     0.0000000
     0.0000000     0.0000000     0.0000000     0.0000000     0.0000000     0.0000000     0.0000000
     0.0000000     0.0000000     0.0000000     0.0000000     0.0000000     0.0000000     0.0000000
     0.0000000     0.0000000     0.0000000     0.0000000     0.0000000     0.0000000     0.0000000
     0.0000000     0.0000000     0.0000000     0.0000000     0.0000000     0.0000000     0.0000000
     0.0000000     0.0000000     0.0000000     0.0000000     0.0000000     0.0000000     0.0000000
     0.0000000     0.0000000     0.0000000     0.0000000     0.0000000     0.0000000     0.0000000

 Ion:    2  E_soc:     -0.0210735
 l=   1
     0.0000000    -0.0026834    -0.0026632
    -0.0026834     0.0000000    -0.0026845
    -0.0026632    -0.0026845     0.0000000
 l=   2
     0.0000000    -0.0001188     0.0000000    -0.0001914    -0.0003951
    -0.0001188     0.0000000    -0.0006254    -0.0001631    -0.0001330
     0.0000000    -0.0006254     0.0000000    -0.0006487     0.0000000
    -0.0001914    -0.0001631    -0.0006487     0.0000000    -0.0002303
    -0.0003951    -0.0001330     0.0000000    -0.0002303     0.0000000
 l=   3
     0.0000000     0.0000000     0.0000000     0.0000000     0.0000000     0.0000000     0.0000000
     0.0000000     0.0000000     0.0000000     0.0000000     0.0000000     0.0000000     0.0000000
     0.0000000     0.0000000     0.0000000     0.0000000     0.0000000     0.0000000     0.0000000
     0.0000000     0.0000000     0.0000000     0.0000000     0.0000000     0.0000000     0.0000000
     0.0000000     0.0000000     0.0000000     0.0000000     0.0000000     0.0000000     0.0000000
     0.0000000     0.0000000     0.0000000     0.0000000     0.0000000     0.0000000     0.0000000
     0.0000000     0.0000000     0.0000000     0.0000000     0.0000000     0.0000000     0.0000000

 Ion:    3  E_soc:     -0.0210735
 l=   1
     0.0000000    -0.0026834    -0.0026632
    -0.0026834     0.0000000    -0.0026845
    -0.0026632    -0.0026845     0.0000000
 l=   2
     0.0000000    -0.0001188     0.0000000    -0.0001914    -0.0003951
    -0.0001188     0.0000000    -0.0006254    -0.0001631    -0.0001330
     0.0000000    -0.0006254     0.0000000    -0.0006487     0.0000000
    -0.0001914    -0.0001631    -0.0006487     0.0000000    -0.0002303
    -0.0003951    -0.0001330     0.0000000    -0.0002303     0.0000000
 l=   3
     0.0000000     0.0000000     0.0000000     0.0000000     0.0000000     0.0000000     0.0000000
     0.0000000     0.0000000     0.0000000     0.0000000     0.0000000     0.0000000     0.0000000
     0.0000000     0.0000000     0.0000000     0.0000000     0.0000000     0.0000000     0.0000000
     0.0000000     0.0000000     0.0000000     0.0000000     0.0000000     0.0000000     0.0000000
     0.0000000     0.0000000     0.0000000     0.0000000     0.0000000     0.0000000     0.0000000
     0.0000000     0.0000000     0.0000000     0.0000000     0.0000000     0.0000000     0.0000000
     0.0000000     0.0000000     0.0000000     0.0000000     0.0000000     0.0000000     0.0000000

 Ion:    4  E_soc:     -0.0210735
 l=   1
     0.0000000    -0.0026851    -0.0026632
    -0.0026851     0.0000000    -0.0026828
    -0.0026632    -0.0026828     0.0000000
 l=   2
     0.0000000    -0.0002676     0.0000000    -0.0001224    -0.0003951
    -0.0002676     0.0000000    -0.0006603    -0.0001631    -0.0002391
     0.0000000    -0.0006603     0.0000000    -0.0006137     0.0000000
    -0.0001224    -0.0001631    -0.0006137     0.0000000    -0.0000444
    -0.0003951    -0.0002391     0.0000000    -0.0000444     0.0000000
 l=   3
     0.0000000     0.0000000     0.0000000     0.0000000     0.0000000     0.0000000     0.0000000
     0.0000000     0.0000000     0.0000000     0.0000000     0.0000000     0.0000000     0.0000000
     0.0000000     0.0000000     0.0000000     0.0000000     0.0000000     0.0000000     0.0000000
     0.0000000     0.0000000     0.0000000     0.0000000     0.0000000     0.0000000     0.0000000
     0.0000000     0.0000000     0.0000000     0.0000000     0.0000000     0.0000000     0.0000000
     0.0000000     0.0000000     0.0000000     0.0000000     0.0000000     0.0000000     0.0000000
     0.0000000     0.0000000     0.0000000     0.0000000     0.0000000     0.0000000     0.0000000

 Ion:    5  E_soc:     -0.1233537
 l=   1
     0.0000000    -0.0212739    -0.0185262
    -0.0212739     0.0000000    -0.0212739
    -0.0185262    -0.0212739     0.0000000
 l=   2
     0.0000000    -0.0000508     0.0000000    -0.0000508    -0.0001827
    -0.0000508     0.0000000    -0.0000791    -0.0000588    -0.0000508
     0.0000000    -0.0000791     0.0000000    -0.0000791     0.0000000
    -0.0000508    -0.0000588    -0.0000791     0.0000000    -0.0000508
    -0.0001827    -0.0000508     0.0000000    -0.0000508     0.0000000
 l=   3
     0.0000000     0.0000000     0.0000000     0.0000000     0.0000000     0.0000000     0.0000000
     0.0000000     0.0000000     0.0000000     0.0000000     0.0000000     0.0000000     0.0000000
     0.0000000     0.0000000     0.0000000     0.0000000     0.0000000     0.0000000     0.0000000
     0.0000000     0.0000000     0.0000000     0.0000000     0.0000000     0.0000000     0.0000000
     0.0000000     0.0000000     0.0000000     0.0000000     0.0000000     0.0000000     0.0000000
     0.0000000     0.0000000     0.0000000     0.0000000     0.0000000     0.0000000     0.0000000
     0.0000000     0.0000000     0.0000000     0.0000000     0.0000000     0.0000000     0.0000000

 Ion:    6  E_soc:     -0.1304094
 l=   1
     0.0000000    -0.0223344    -0.0202229
    -0.0223344     0.0000000    -0.0223344
    -0.0202229    -0.0223344     0.0000000
 l=   2
     0.0000000    -0.0000187     0.0000000    -0.0000187    -0.0001248
    -0.0000187     0.0000000    -0.0000574     0.0000011    -0.0000187
     0.0000000    -0.0000574     0.0000000    -0.0000574     0.0000000
    -0.0000187     0.0000011    -0.0000574     0.0000000    -0.0000187
    -0.0001248    -0.0000187     0.0000000    -0.0000187     0.0000000
 l=   3
     0.0000000     0.0000000     0.0000000     0.0000000     0.0000000     0.0000000     0.0000000
     0.0000000     0.0000000     0.0000000     0.0000000     0.0000000     0.0000000     0.0000000
     0.0000000     0.0000000     0.0000000     0.0000000     0.0000000     0.0000000     0.0000000
     0.0000000     0.0000000     0.0000000     0.0000000     0.0000000     0.0000000     0.0000000
     0.0000000     0.0000000     0.0000000     0.0000000     0.0000000     0.0000000     0.0000000
     0.0000000     0.0000000     0.0000000     0.0000000     0.0000000     0.0000000     0.0000000
     0.0000000     0.0000000     0.0000000     0.0000000     0.0000000     0.0000000     0.0000000

 Ion:    7  E_soc:     -0.1252574
 l=   1
     0.0000000    -0.0208136    -0.0206036
    -0.0208136     0.0000000    -0.0208136
    -0.0206036    -0.0208136     0.0000000
 l=   2
     0.0000000    -0.0000203     0.0000000    -0.0000203    -0.0001373
    -0.0000203     0.0000000    -0.0000896    -0.0000002    -0.0000203
     0.0000000    -0.0000896     0.0000000    -0.0000896     0.0000000
    -0.0000203    -0.0000002    -0.0000896     0.0000000    -0.0000203
    -0.0001373    -0.0000203     0.0000000    -0.0000203     0.0000000
 l=   3
     0.0000000     0.0000000     0.0000000     0.0000000     0.0000000     0.0000000     0.0000000
     0.0000000     0.0000000     0.0000000     0.0000000     0.0000000     0.0000000     0.0000000
     0.0000000     0.0000000     0.0000000     0.0000000     0.0000000     0.0000000     0.0000000
     0.0000000     0.0000000     0.0000000     0.0000000     0.0000000     0.0000000     0.0000000
     0.0000000     0.0000000     0.0000000     0.0000000     0.0000000     0.0000000     0.0000000
     0.0000000     0.0000000     0.0000000     0.0000000     0.0000000     0.0000000     0.0000000
     0.0000000     0.0000000     0.0000000     0.0000000     0.0000000     0.0000000     0.0000000

 Ion:    8  E_soc:     -0.1304094
 l=   1
     0.0000000    -0.0223344    -0.0202229
    -0.0223344     0.0000000    -0.0223344
    -0.0202229    -0.0223344     0.0000000
 l=   2
     0.0000000    -0.0000187     0.0000000    -0.0000187    -0.0001248
    -0.0000187     0.0000000    -0.0000574     0.0000011    -0.0000187
     0.0000000    -0.0000574     0.0000000    -0.0000574     0.0000000
    -0.0000187     0.0000011    -0.0000574     0.0000000    -0.0000187
    -0.0001248    -0.0000187     0.0000000    -0.0000187     0.0000000
 l=   3
     0.0000000     0.0000000     0.0000000     0.0000000     0.0000000     0.0000000     0.0000000
     0.0000000     0.0000000     0.0000000     0.0000000     0.0000000     0.0000000     0.0000000
     0.0000000     0.0000000     0.0000000     0.0000000     0.0000000     0.0000000     0.0000000
     0.0000000     0.0000000     0.0000000     0.0000000     0.0000000     0.0000000     0.0000000
     0.0000000     0.0000000     0.0000000     0.0000000     0.0000000     0.0000000     0.0000000
     0.0000000     0.0000000     0.0000000     0.0000000     0.0000000     0.0000000     0.0000000
     0.0000000     0.0000000     0.0000000     0.0000000     0.0000000     0.0000000     0.0000000

 Ion:    9  E_soc:     -0.1252574
 l=   1
     0.0000000    -0.0208136    -0.0206036
    -0.0208136     0.0000000    -0.0208136
    -0.0206036    -0.0208136     0.0000000
 l=   2
     0.0000000    -0.0000203     0.0000000    -0.0000203    -0.0001373
    -0.0000203     0.0000000    -0.0000896    -0.0000002    -0.0000203
     0.0000000    -0.0000896     0.0000000    -0.0000896     0.0000000
    -0.0000203    -0.0000002    -0.0000896     0.0000000    -0.0000203
    -0.0001373    -0.0000203     0.0000000    -0.0000203     0.0000000
 l=   3
     0.0000000     0.0000000     0.0000000     0.0000000     0.0000000     0.0000000     0.0000000
     0.0000000     0.0000000     0.0000000     0.0000000     0.0000000     0.0000000     0.0000000
     0.0000000     0.0000000     0.0000000     0.0000000     0.0000000     0.0000000     0.0000000
     0.0000000     0.0000000     0.0000000     0.0000000     0.0000000     0.0000000     0.0000000
     0.0000000     0.0000000     0.0000000     0.0000000     0.0000000     0.0000000     0.0000000
     0.0000000     0.0000000     0.0000000     0.0000000     0.0000000     0.0000000     0.0000000
     0.0000000     0.0000000     0.0000000     0.0000000     0.0000000     0.0000000     0.0000000



 total charge

# of ion       s       p       d       tot
------------------------------------------
    1        1.841   4.678   0.049   6.569
    2        2.243   6.192   3.092  11.527
    3        2.243   6.192   3.092  11.527
    4        2.243   6.192   3.092  11.527
    5        1.118   1.291   0.054   2.462
    6        1.201   1.191   0.035   2.427
    7        1.168   1.277   0.037   2.483
    8        1.201   1.191   0.035   2.427
    9        1.168   1.277   0.037   2.483
--------------------------------------------------
tot         14.428  29.482   9.523  53.432



 magnetization (x)

# of ion       s       p       d       tot
------------------------------------------
    1        0.000   0.000   0.000   0.000
    2       -0.000  -0.000  -0.000  -0.000
    3        0.000   0.000   0.000   0.000
    4       -0.000  -0.000  -0.000  -0.000
    5       -0.000  -0.000  -0.000  -0.000
    6       -0.000   0.000   0.000   0.000
    7        0.000   0.000   0.000   0.000
    8       -0.000  -0.000   0.000  -0.000
    9        0.000  -0.000   0.000  -0.000
--------------------------------------------------
tot         -0.000   0.000   0.000   0.000



 magnetization (y)

# of ion       s       p       d       tot
------------------------------------------
    1       -0.000   0.000   0.000  -0.000
    2       -0.000  -0.000  -0.000  -0.000
    3        0.000   0.000   0.000   0.000
    4       -0.000  -0.000  -0.000  -0.000
    5       -0.000  -0.000  -0.000  -0.000
    6       -0.000  -0.000   0.000  -0.000
    7        0.000   0.000   0.000   0.000
    8       -0.000  -0.000   0.000  -0.000
    9        0.000  -0.000   0.000   0.000
--------------------------------------------------
tot         -0.000  -0.000   0.000   0.000



 magnetization (z)

# of ion       s       p       d       tot
------------------------------------------
    1        0.000   0.000  -0.000   0.000
    2       -0.000  -0.000  -0.000  -0.000
    3        0.000   0.000   0.000   0.000
    4       -0.000  -0.000  -0.000  -0.000
    5       -0.000  -0.000  -0.000  -0.000
    6       -0.000  -0.000   0.000  -0.000
    7        0.000  -0.000   0.000  -0.000
    8       -0.000   0.000   0.000  -0.000
    9        0.000   0.000  -0.000   0.000
--------------------------------------------------
tot         -0.000  -0.000  -0.000  -0.000
 

 total amount of memory used by VASP MPI-rank0   156603. kBytes
=======================================================================

   base      :      30000. kBytes
   nonl-proj :      40465. kBytes
   fftplans  :       6616. kBytes
   grid      :       6912. kBytes
   one-center:         62. kBytes
   wavefun   :      72548. kBytes
 
  
  
 General timing and accounting informations for this job:
 ========================================================
  
                  Total CPU time used (sec):     1795.993
                            User time (sec):     1376.238
                          System time (sec):      419.755
                         Elapsed time (sec):     1811.599
  
                   Maximum memory used (kb):      511588.
                   Average memory used (kb):          N/A
  
                          Minor page faults:        29441
                          Major page faults:          279
                 Voluntary context switches:         2648
