    2    2    1    1
  0.3953772E+02  0.2468269E-09  0.2468269E-09  0.1498739E-08  0.5000000E-15
  1.000000000000000E-004
  CAR 
 unknown system                          
      8     27      8
 
  0.3742002E-15  0.3742002E-15  0.1262379E-14  0.4444444E-02
    1      -21.747099   1.000000
    2       -9.853097   1.000000
    3       -5.286167   1.000000
    4       -5.286166   1.000000
    5        1.008939   0.000000
    6        1.910402   0.000000
    7        2.476796   0.000000
    8        4.328977   0.000000
 
  0.6666667E-01  0.3816392E-15  0.1262379E-14  0.2666667E-01
    1      -21.642192   1.000000
    2       -9.728007   1.000000
    3       -5.710382   1.000000
    4       -5.507565   1.000000
    5        1.151299   0.000000
    6        2.053959   0.000000
    7        2.621732   0.000000
    8        4.471589   0.000000
 
  0.1333333E+00  0.3885781E-15  0.1262379E-14  0.2666667E-01
    1      -21.328224   1.000000
    2       -9.354813   1.000000
    3       -6.837187   1.000000
    4       -6.068720   1.000000
    5        1.578425   0.000000
    6        2.484037   0.000000
    7        3.056604   0.000000
    8        4.898392   0.000000
 
  0.2000000E+00  0.4024558E-15  0.1262379E-14  0.2666667E-01
    1      -20.807523   1.000000
    2       -8.740545   1.000000
    3       -8.382211   1.000000
    4       -6.770480   1.000000
    5        2.289747   0.000000
    6        3.197610   0.000000
    7        3.781162   0.000000
    8        5.596188   0.000000
 
  0.2666667E+00  0.3885781E-15  0.1262379E-14  0.2666667E-01
    1      -20.084316   1.000000
    2      -10.110718   1.000000
    3       -7.900372   1.000000
    4       -7.453403   1.000000
    5        3.283052   0.000000
    6        4.125625   0.000000
    7        4.583823   0.000000
    8        4.792749   0.000000
 
  0.3333333E+00  0.4440892E-15  0.1262379E-14  0.2666667E-01
    1      -19.166230   1.000000
    2      -11.871346   1.000000
    3       -8.021560   1.000000
    4       -6.867385   1.000000
    5        2.638418   0.000000
    6        4.548483   0.000000
    7        5.432158   0.000000
    8        6.111732   0.000000
 
  0.4000000E+00  0.4163336E-15  0.1262379E-14  0.2666667E-01
    1      -18.069922   1.000000
    2      -13.565356   1.000000
    3       -8.422368   1.000000
    4       -5.728002   1.000000
    5        0.898196   0.000000
    6        5.204011   0.000000
    7        6.130220   0.000000
    8        7.054901   0.000000
 
  0.4666667E+00  0.4163336E-15  0.1262379E-14  0.2666667E-01
    1      -16.874911   1.000000
    2      -15.068898   1.000000
    3       -8.628578   1.000000
    4       -4.775748   1.000000
    5       -0.373831   0.000000
    6        5.105844   0.000000
    7        7.930614   0.000000
    8        8.860095   0.000000
 
  0.6666667E-01  0.6666667E-01  0.1262379E-14  0.2666667E-01
    1      -21.432766   1.000000
    2       -9.478836   1.000000
    3       -6.434443   1.000000
    4       -5.950897   1.000000
    5        1.436113   0.000000
    6        2.340808   0.000000
    7        2.911682   0.000000
    8        4.756393   0.000000
 
  0.1333333E+00  0.6666667E-01  0.1262379E-14  0.5333333E-01
    1      -21.015442   1.000000
    2       -8.984842   1.000000
    3       -7.681319   1.000000
    4       -6.673467   1.000000
    5        2.005651   0.000000
    6        2.913185   0.000000
    7        3.491644   0.000000
    8        5.323551   0.000000
 
  0.2000000E+00  0.6666667E-01  0.1262379E-14  0.5333333E-01
    1      -20.393481   1.000000
    2       -9.259507   1.000000
    3       -8.256439   1.000000
    4       -7.426231   1.000000
    5        2.858658   0.000000
    6        3.763421   0.000000
    7        4.361029   0.000000
    8        5.273220   0.000000
 
  0.2666667E+00  0.6666667E-01  0.1262379E-14  0.5333333E-01
    1      -19.572673   1.000000
    2      -10.973354   1.000000
    3       -8.083308   1.000000
    4       -7.315511   1.000000
    5        3.473516   0.000000
    6        3.991726   0.000000
    7        4.933723   0.000000
    8        5.513349   0.000000
 
  0.3333333E+00  0.6666667E-01  0.1262379E-14  0.5333333E-01
    1      -18.564096   1.000000
    2      -12.686664   1.000000
    3       -8.582997   1.000000
    4       -6.213001   1.000000
    5        1.695056   0.000000
    6        5.379155   0.000000
    7        5.807478   0.000000
    8        6.339093   0.000000
 
  0.4000000E+00  0.6666667E-01  0.1262379E-14  0.5333333E-01
    1      -17.398648   1.000000
    2      -14.298120   1.000000
    3       -8.893173   1.000000
    4       -5.101071   1.000000
    5        0.136684   0.000000
    6        5.611548   0.000000
    7        7.100442   0.000000
    8        8.009730   0.000000
 
  0.4666667E+00  0.6666667E-01  0.1262379E-14  0.2666667E-01
    1      -16.450110   1.000000
    2      -15.398859   1.000000
    3       -8.998139   1.000000
    4       -4.515286   1.000000
    5       -0.604097   0.000000
    6        5.560163   0.000000
    7        8.943676   0.000000
    8        9.101613   0.000000
 
  0.1333333E+00  0.1333333E+00  0.1262379E-14  0.2666667E-01
    1      -20.496868   1.000000
    2       -8.779919   1.000000
    3       -8.375931   1.000000
    4       -7.630795   1.000000
    5        2.717316   0.000000
    6        3.626164   0.000000
    7        4.216840   0.000000
    8        5.569242   0.000000
 
  0.2000000E+00  0.1333333E+00  0.1262379E-14  0.5333333E-01
    1      -19.777241   1.000000
    2      -10.170855   1.000000
    3       -8.532512   1.000000
    4       -7.542872   1.000000
    5        3.711146   0.000000
    6        4.016824   0.000000
    7        4.626605   0.000000
    8        5.231315   0.000000
 
  0.2666667E+00  0.1333333E+00  0.1262379E-14  0.5333333E-01
    1      -18.865015   1.000000
    2      -11.756465   1.000000
    3       -9.203822   1.000000
    4       -6.516894   1.000000
    5        2.355375   0.000000
    6        4.982406   0.000000
    7        5.888840   0.000000
    8        6.530144   0.000000
 
  0.3333333E+00  0.1333333E+00  0.1262379E-14  0.5333333E-01
    1      -17.778074   1.000000
    2      -13.362758   1.000000
    3       -9.646657   1.000000
    4       -5.377406   1.000000
    5        0.734759   0.000000
    6        6.508034   0.000000
    7        6.965336   0.000000
    8        7.401524   0.000000
 
  0.4000000E+00  0.1333333E+00  0.1262379E-14  0.5333333E-01
    1      -16.598143   1.000000
    2      -14.819994   1.000000
    3       -9.867838   1.000000
    4       -4.402999   1.000000
    5       -0.498249   0.000000
    6        6.828558   0.000000
    7        8.329461   0.000000
    8        9.043859   0.000000
 
  0.2000000E+00  0.2000000E+00  0.1262379E-14  0.2666667E-01
    1      -18.965960   1.000000
    2      -11.183939   1.000000
    3       -9.699158   1.000000
    4       -6.620162   1.000000
    5        2.625859   0.000000
    6        4.842923   0.000000
    7        5.730852   0.000000
    8        6.390294   0.000000
 
  0.2666667E+00  0.2000000E+00  0.1262379E-14  0.5333333E-01
    1      -17.972840   1.000000
    2      -12.463308   1.000000
    3      -10.516284   1.000000
    4       -5.531451   1.000000
    5        1.156111   0.000000
    6        6.245635   0.000000
    7        7.072060   0.000000
    8        7.833895   0.000000
 
  0.3333333E+00  0.2000000E+00  0.1262379E-14  0.5333333E-01
    1      -16.832355   1.000000
    2      -13.882623   1.000000
    3      -10.942559   1.000000
    4       -4.400038   1.000000
    5       -0.226372   0.000000
    6        7.892903   0.000000
    7        8.452726   0.000000
    8        8.613725   0.000000
 
  0.4000000E+00  0.2000000E+00  0.1262379E-14  0.2666667E-01
    1      -15.910622   1.000000
    2      -14.913182   1.000000
    3      -11.075268   1.000000
    4       -3.754329   1.000000
    5       -0.960359   0.000000
    6        8.532207   0.000000
    7        9.068198   0.000000
    8        9.642158   0.000000
 
  0.2666667E+00  0.2666667E+00  0.1262379E-14  0.2666667E-01
    1      -16.919534   1.000000
    2      -13.246241   1.000000
    3      -11.633347   1.000000
    4       -4.412569   1.000000
    5       -0.084548   0.000000
    6        7.760732   0.000000
    7        8.216170   0.000000
    8        9.414573   0.000000
 
  0.3333333E+00  0.2666667E+00  0.1262379E-14  0.5333333E-01
    1      -15.787304   1.000000
    2      -14.287690   1.000000
    3      -12.172675   1.000000
    4       -3.337287   1.000000
    5       -1.215001   0.000000
    6        8.550861   0.000000
    7        9.445970   0.000000
    8       10.280153   0.000000
 
  0.3333333E+00  0.3333333E+00  0.1262379E-14  0.8888889E-02
    1      -14.837116   1.000000
    2      -14.837116   1.000000
    3      -12.780471   1.000000
    4       -2.256906   0.500000
    5       -2.256906   0.500000
    6        8.357685   0.000000
    7       10.611903   0.000000
    8       10.611903   0.000000
