<?xml version="1.0" encoding="ISO-8859-1"?>
<modeling>
 <generator>
  <i name="program" type="string">vasp </i>
  <i name="version" type="string">5.4.4.18Apr17-6-g9f103f2a35  </i>
  <i name="subversion" type="string">(build Mar 28 2024 22:07:11) complex            parallel </i>
  <i name="platform" type="string">LinuxIFC </i>
  <i name="date" type="string">2025 09 25 </i>
  <i name="time" type="string">21:04:39 </i>
 </generator>
 <incar>
  <i type="int" name="ISTART">     0</i>
  <i type="string" name="PREC">accurate   (precision level: normal or</i>
  <i type="string" name="ALGO"> Normal</i>
  <i type="logical" name="ADDGRID"> T  </i>
  <i type="int" name="ISPIN">     1</i>
  <i type="int" name="NELM">  2000</i>
  <i type="int" name="NELMIN">     6</i>
  <i name="EDIFF">      0.00000001</i>
  <i name="ENCUT">    500.00000000</i>
  <i type="int" name="NEDOS">  2001</i>
  <i type="logical" name="LREAL"> F  </i>
  <i type="int" name="ISMEAR">     0</i>
  <i name="SIGMA">      0.05000000</i>
  <i type="logical" name="LWAVE"> T  </i>
  <i type="logical" name="LCHARG"> T  </i>
  <i type="logical" name="LVTOT"> T  </i>
  <i type="int" name="LORBIT">    10</i>
  <v type="int" name="KPOINT_BSE">    -1     0     0     0</v>
  <i type="int" name="NELM">  2000</i>
 </incar>
 <structure name="primitive_cell" >
  <crystal>
   <varray name="basis" >
    <v>       2.46826903       0.00000000       0.00000000 </v>
    <v>      -1.23413451       2.13758368       0.00000000 </v>
    <v>       0.00000000       0.00000000      14.98738952 </v>
   </varray>
   <i name="volume">     79.07543933 </i>
   <varray name="rec_basis" >
    <v>       0.40514222       0.23390897       0.00000000 </v>
    <v>      -0.00000000       0.46781794       0.00000000 </v>
    <v>       0.00000000       0.00000000       0.06672276 </v>
   </varray>
  </crystal>
  <varray name="positions" >
   <v>       0.00000000       0.00000000       0.50000000 </v>
   <v>      -0.33333333       0.33333333      -0.50000000 </v>
  </varray>
 </structure>
 <varray name="primitive_index" >
  <v type="int" >        1 </v>
  <v type="int" >        2 </v>
 </varray>
 <kpoints>
  <generation param="Gamma">
   <v type="int" name="divisions">      15       15        1 </v>
   <v name="usershift">      0.00000000       0.00000000       0.00000000 </v>
   <v name="genvec1">      0.06666667       0.00000000       0.00000000 </v>
   <v name="genvec2">      0.00000000       0.06666667       0.00000000 </v>
   <v name="genvec3">      0.00000000       0.00000000       1.00000000 </v>
   <v name="shift">      0.00000000       0.00000000       0.00000000 </v>
  </generation>
  <varray name="kpointlist" >
   <v>       0.00000000       0.00000000       0.00000000 </v>
   <v>       0.06666667       0.00000000       0.00000000 </v>
   <v>       0.13333333       0.00000000       0.00000000 </v>
   <v>       0.20000000       0.00000000       0.00000000 </v>
   <v>       0.26666667       0.00000000       0.00000000 </v>
   <v>       0.33333333       0.00000000       0.00000000 </v>
   <v>       0.40000000       0.00000000       0.00000000 </v>
   <v>       0.46666667       0.00000000       0.00000000 </v>
   <v>       0.06666667       0.06666667       0.00000000 </v>
   <v>       0.13333333       0.06666667       0.00000000 </v>
   <v>       0.20000000       0.06666667       0.00000000 </v>
   <v>       0.26666667       0.06666667       0.00000000 </v>
   <v>       0.33333333       0.06666667       0.00000000 </v>
   <v>       0.40000000       0.06666667       0.00000000 </v>
   <v>       0.46666667       0.06666667       0.00000000 </v>
   <v>       0.13333333       0.13333333       0.00000000 </v>
   <v>       0.20000000       0.13333333       0.00000000 </v>
   <v>       0.26666667       0.13333333       0.00000000 </v>
   <v>       0.33333333       0.13333333       0.00000000 </v>
   <v>       0.40000000       0.13333333       0.00000000 </v>
   <v>       0.20000000       0.20000000       0.00000000 </v>
   <v>       0.26666667       0.20000000       0.00000000 </v>
   <v>       0.33333333       0.20000000       0.00000000 </v>
   <v>       0.40000000       0.20000000       0.00000000 </v>
   <v>       0.26666667       0.26666667       0.00000000 </v>
   <v>       0.33333333       0.26666667       0.00000000 </v>
   <v>       0.33333333       0.33333333       0.00000000 </v>
  </varray>
  <varray name="weights" >
   <v>       0.00444444 </v>
   <v>       0.02666667 </v>
   <v>       0.02666667 </v>
   <v>       0.02666667 </v>
   <v>       0.02666667 </v>
   <v>       0.02666667 </v>
   <v>       0.02666667 </v>
   <v>       0.02666667 </v>
   <v>       0.02666667 </v>
   <v>       0.05333333 </v>
   <v>       0.05333333 </v>
   <v>       0.05333333 </v>
   <v>       0.05333333 </v>
   <v>       0.05333333 </v>
   <v>       0.02666667 </v>
   <v>       0.02666667 </v>
   <v>       0.05333333 </v>
   <v>       0.05333333 </v>
   <v>       0.05333333 </v>
   <v>       0.05333333 </v>
   <v>       0.02666667 </v>
   <v>       0.05333333 </v>
   <v>       0.05333333 </v>
   <v>       0.02666667 </v>
   <v>       0.02666667 </v>
   <v>       0.05333333 </v>
   <v>       0.00888889 </v>
  </varray>
 </kpoints>
 <parameters>
  <separator name="general" >
   <i type="string" name="SYSTEM">unknown system</i>
   <i type="logical" name="LCOMPAT"> F  </i>
  </separator>
  <separator name="electronic" >
   <i type="string" name="PREC">accura</i>
   <i name="ENMAX">    500.00000000</i>
   <i name="ENAUG">    644.87300000</i>
   <i name="EDIFF">      0.00000001</i>
   <i type="int" name="IALGO">    38</i>
   <i type="int" name="IWAVPR">    10</i>
   <i type="int" name="NBANDS">     8</i>
   <i name="NELECT">      8.00000000</i>
   <i type="int" name="TURBO">     0</i>
   <i type="int" name="IRESTART">     0</i>
   <i type="int" name="NREBOOT">     0</i>
   <i type="int" name="NMIN">     0</i>
   <i name="EREF">      0.00000000</i>
   <separator name="electronic smearing" >
    <i type="int" name="ISMEAR">     0</i>
    <i name="SIGMA">      0.05000000</i>
    <i name="KSPACING">      0.50000000</i>
    <i type="logical" name="KGAMMA"> T  </i>
   </separator>
   <separator name="electronic projectors" >
    <i type="logical" name="LREAL"> F  </i>
    <v name="ROPT">      0.00000000</v>
    <i type="int" name="LMAXPAW">  -100</i>
    <i type="int" name="LMAXMIX">     2</i>
    <i type="logical" name="NLSPLINE"> F  </i>
   </separator>
   <separator name="electronic startup" >
    <i type="int" name="ISTART">     0</i>
    <i type="int" name="ICHARG">     2</i>
    <i type="int" name="INIWAV">     1</i>
   </separator>
   <separator name="electronic spin" >
    <i type="int" name="ISPIN">     1</i>
    <i type="logical" name="LNONCOLLINEAR"> F  </i>
    <v name="MAGMOM">      1.00000000      1.00000000</v>
    <i name="NUPDOWN">     -1.00000000</i>
    <i type="logical" name="LSORBIT"> F  </i>
    <v name="SAXIS">      0.00000000      0.00000000      1.00000000</v>
    <i type="logical" name="LSPIRAL"> F  </i>
    <v name="QSPIRAL">      0.00000000      0.00000000      0.00000000</v>
    <i type="logical" name="LZEROZ"> F  </i>
   </separator>
   <separator name="electronic exchange-correlation" >
    <i type="logical" name="LASPH"> F  </i>
    <i type="logical" name="LMETAGGA"> F  </i>
   </separator>
   <separator name="electronic convergence" >
    <i type="int" name="NELM">  2000</i>
    <i type="int" name="NELMDL">    -5</i>
    <i type="int" name="NELMIN">     6</i>
    <i name="ENINI">    500.00000000</i>
    <separator name="electronic convergence detail" >
     <i type="logical" name="LDIAG"> T  </i>
     <i type="logical" name="LSUBROT"> F  </i>
     <i name="WEIMIN">      0.00000000</i>
     <i name="EBREAK">      0.00000000</i>
     <i name="DEPER">      0.30000000</i>
     <i type="int" name="NRMM">     4</i>
     <i name="TIME">      0.40000000</i>
    </separator>
   </separator>
   <separator name="electronic mixer" >
    <i name="AMIX">      0.40000000</i>
    <i name="BMIX">      1.00000000</i>
    <i name="AMIN">      0.10000000</i>
    <i name="AMIX_MAG">      1.60000000</i>
    <i name="BMIX_MAG">      1.00000000</i>
    <separator name="electronic mixer details" >
     <i type="int" name="IMIX">     4</i>
     <i type="logical" name="MIXFIRST"> F  </i>
     <i type="int" name="MAXMIX">   -45</i>
     <i name="WC">    100.00000000</i>
     <i type="int" name="INIMIX">     1</i>
     <i type="int" name="MIXPRE">     1</i>
     <i type="int" name="MREMOVE">     5</i>
    </separator>
   </separator>
   <separator name="electronic dipolcorrection" >
    <i type="logical" name="LDIPOL"> F  </i>
    <i type="logical" name="LMONO"> F  </i>
    <i type="int" name="IDIPOL">     0</i>
    <i name="EPSILON">      1.00000000</i>
    <v name="DIPOL">   -100.00000000   -100.00000000   -100.00000000</v>
    <i name="EFIELD">      0.00000000</i>
   </separator>
  </separator>
  <separator name="grids" >
   <i type="int" name="NGX">    18</i>
   <i type="int" name="NGY">    18</i>
   <i type="int" name="NGZ">   112</i>
   <i type="int" name="NGXF">    36</i>
   <i type="int" name="NGYF">    36</i>
   <i type="int" name="NGZF">   224</i>
   <i type="logical" name="ADDGRID"> T  </i>
  </separator>
  <separator name="ionic" >
   <i type="int" name="NSW">     0</i>
   <i type="int" name="IBRION">    -1</i>
   <i type="int" name="MDALGO">     0</i>
   <i type="int" name="ISIF">     2</i>
   <i name="PSTRESS">      0.00000000</i>
   <i name="EDIFFG">      0.00000010</i>
   <i type="int" name="NFREE">     0</i>
   <i name="POTIM">      0.50000000</i>
   <i name="SMASS">     -3.00000000</i>
   <i name="SCALEE">      1.00000000</i>
  </separator>
  <separator name="ionic md" >
   <i name="TEBEG">      0.00010000</i>
   <i name="TEEND">      0.00010000</i>
   <i type="int" name="NBLOCK">     1</i>
   <i type="int" name="KBLOCK">     1</i>
   <i type="int" name="NPACO">   256</i>
   <i name="APACO">     16.00000000</i>
  </separator>
  <separator name="symmetry" >
   <i type="int" name="ISYM">     2</i>
   <i name="SYMPREC">      0.00001000</i>
  </separator>
  <separator name="dos" >
   <i type="int" name="LORBIT">    10</i>
   <v name="RWIGS">     -1.00000000</v>
   <i type="int" name="NEDOS">  2001</i>
   <i name="EMIN">     10.00000000</i>
   <i name="EMAX">    -10.00000000</i>
   <i name="EFERMI">      0.00000000</i>
  </separator>
  <separator name="writing" >
   <i type="int" name="NWRITE">     2</i>
   <i type="logical" name="LWAVE"> T  </i>
   <i type="logical" name="LDOWNSAMPLE"> F  </i>
   <i type="logical" name="LCHARG"> T  </i>
   <i type="logical" name="LPARD"> F  </i>
   <i type="logical" name="LVTOT"> T  </i>
   <i type="logical" name="LVHAR"> F  </i>
   <i type="logical" name="LELF"> F  </i>
   <i type="logical" name="LOPTICS"> F  </i>
   <v name="STM">      0.00000000      0.00000000      0.00000000      0.00000000      0.00000000      0.00000000      0.00000000</v>
  </separator>
  <separator name="performance" >
   <i type="int" name="NPAR">     4</i>
   <i type="int" name="NSIM">     4</i>
   <i type="int" name="NBLK">    -1</i>
   <i type="logical" name="LPLANE"> T  </i>
   <i type="logical" name="LSCALAPACK"> T  </i>
   <i type="logical" name="LSCAAWARE"> F  </i>
   <i type="logical" name="LSCALU"> F  </i>
   <i type="logical" name="LASYNC"> F  </i>
   <i type="logical" name="LORBITALREAL"> F  </i>
  </separator>
  <separator name="miscellaneous" >
   <i type="int" name="IDIOT">     3</i>
   <i type="int" name="ISPECIAL">     0</i>
   <i type="logical" name="LMUSIC"> F  </i>
   <v name="POMASS">     12.01100000</v>
   <v name="DARWINR">      0.00000000</v>
   <v name="DARWINV">      1.00000000</v>
   <i type="logical" name="LCORR"> T  </i>
  </separator>
  <i type="logical" name="GGA_COMPAT"> T  </i>
  <i type="logical" name="LBERRY"> F  </i>
  <i type="int" name="ICORELEVEL">     0</i>
  <i type="logical" name="LDAU"> F  </i>
  <i type="int" name="I_CONSTRAINED_M">     0</i>
  <separator name="electronic exchange-correlation" >
   <i type="string" name="GGA">--</i>
   <i type="int" name="VOSKOWN">     0</i>
   <i type="logical" name="LHFCALC"> F  </i>
   <i type="string" name="PRECFOCK"></i>
   <i type="logical" name="LSYMGRAD"> F  </i>
   <i type="logical" name="LHFONE"> F  </i>
   <i type="logical" name="LRHFCALC"> F  </i>
   <i type="logical" name="LTHOMAS"> F  </i>
   <i type="logical" name="LMODELHF"> F  </i>
   <i name="ENCUT4O">     -1.00000000</i>
   <i type="int" name="EXXOEP">     0</i>
   <i type="int" name="FOURORBIT">     0</i>
   <i name="AEXX">      0.00000000</i>
   <i name="HFALPHA">      0.00000000</i>
   <i name="MCALPHA">      0.00000000</i>
   <i name="ALDAX">      1.00000000</i>
   <i name="AGGAX">      1.00000000</i>
   <i name="ALDAC">      1.00000000</i>
   <i name="AGGAC">      1.00000000</i>
   <i type="int" name="NKREDX">     1</i>
   <i type="int" name="NKREDY">     1</i>
   <i type="int" name="NKREDZ">     1</i>
   <i type="logical" name="SHIFTRED"> F  </i>
   <i type="logical" name="ODDONLY"> F  </i>
   <i type="logical" name="EVENONLY"> F  </i>
   <i type="int" name="LMAXFOCK">     0</i>
   <i type="int" name="NMAXFOCKAE">     0</i>
   <i type="logical" name="LFOCKAEDFT"> F  </i>
   <i name="HFSCREEN">      0.00000000</i>
   <i name="HFSCREENC">      0.00000000</i>
   <i type="int" name="NBANDSGWLOW">     0</i>
  </separator>
  <separator name="vdW DFT" >
   <i type="logical" name="LUSE_VDW"> F  </i>
   <i name="Zab_VDW">     -0.84910000</i>
   <i name="PARAM1">      0.12340000</i>
   <i name="PARAM2">      1.00000000</i>
   <i name="PARAM3">      0.00000000</i>
  </separator>
  <separator name="model GW" >
   <i type="int" name="MODEL_GW">     0</i>
   <i name="MODEL_EPS0">     23.72263180</i>
   <i name="MODEL_ALPHA">      1.00000000</i>
  </separator>
  <separator name="linear response parameters" >
   <i type="logical" name="LEPSILON"> F  </i>
   <i type="logical" name="LRPA"> F  </i>
   <i type="logical" name="LNABLA"> F  </i>
   <i type="logical" name="LVEL"> F  </i>
   <i type="int" name="KINTER">     0</i>
   <i name="CSHIFT">      0.10000000</i>
   <i name="OMEGAMAX">     -1.00000000</i>
   <i name="DEG_THRESHOLD">      0.00200000</i>
   <i name="RTIME">     -0.10000000</i>
   <i name="WPLASMAI">      0.00000000</i>
   <v name="DFIELD">      0.00000000      0.00000000      0.00000000</v>
   <v name="WPLASMA">      0.00000000      0.00000000      0.00000000      0.00000000      0.00000000      0.00000000      0.00000000      0.00000000      0.00000000</v>
  </separator>
  <separator name="orbital magnetization" >
   <i type="logical" name="NUCIND"> F  </i>
   <v name="MAGPOS">      0.00000000      0.00000000      0.00000000</v>
   <i type="logical" name="LNICSALL"> T  </i>
   <i type="logical" name="ORBITALMAG"> F  </i>
   <i type="logical" name="LMAGBLOCH"> F  </i>
   <i type="logical" name="LCHIMAG"> F  </i>
   <i type="logical" name="LGAUGE"> T  </i>
   <i type="int" name="MAGATOM">     0</i>
   <v name="MAGDIPOL">      0.00000000      0.00000000      0.00000000</v>
   <v name="AVECCONST">      0.00000000      0.00000000      0.00000000</v>
  </separator>
  <separator name="response functions" >
   <i type="logical" name="LADDER"> F  </i>
   <i type="logical" name="LRPAFORCE"> F  </i>
   <i type="logical" name="LFXC"> F  </i>
   <i type="logical" name="LHARTREE"> T  </i>
   <i type="int" name="IBSE">     0</i>
   <v type="int" name="KPOINT">    -1     0     0     0</v>
   <i type="logical" name="LTCTE"> F  </i>
   <i type="logical" name="LTETE"> F  </i>
   <i type="logical" name="LTRIPLET"> F  </i>
   <i type="logical" name="LFXCEPS"> F  </i>
   <i type="logical" name="LFXHEG"> F  </i>
   <i type="int" name="NATURALO">     2</i>
   <i type="logical" name="L2ORDER"> F  </i>
   <i type="logical" name="LMP2LT"> F  </i>
   <i type="logical" name="LUSEW"> F  </i>
   <i name="ENCUTGW">     -2.00000000</i>
   <i name="ENCUTGWSOFT">     -2.00000000</i>
   <i name="ENCUTLF">     -1.00000000</i>
   <i type="int" name="LMAXMP2">    -1</i>
   <i name="SCISSOR">      0.00000000</i>
   <i type="int" name="NOMEGA">     0</i>
   <i type="int" name="NOMEGAR">     0</i>
   <i type="int" name="NBANDSGW">    -1</i>
   <i type="int" name="NBANDSO">    -1</i>
   <i type="int" name="NBANDSV">    -1</i>
   <i type="int" name="NELM">  2000</i>
   <i type="int" name="NELMHF">     1</i>
   <i type="int" name="DIM">     3</i>
   <i type="int" name="ANTIRES">     0</i>
   <i name="OMEGAMAX">    -30.00000000</i>
   <i name="OMEGAMIN">    -30.00000000</i>
   <i name="OMEGATL">   -200.00000000</i>
   <i type="int" name="OMEGAGRID">   140</i>
   <i name="CSHIFT">     -0.10000000</i>
   <i type="logical" name="SELFENERGY"> F  </i>
   <i type="logical" name="LSPECTRAL"> F  </i>
   <i type="logical" name="LSPECTRALGW"> F  </i>
   <i type="logical" name="LSINGLES"> F  </i>
   <i type="logical" name="LFERMIGW"> F  </i>
   <i type="logical" name="ODDONLYGW"> F  </i>
   <i type="logical" name="EVENONLYGW"> F  </i>
   <i type="int" name="NKREDLFX">     1</i>
   <i type="int" name="NKREDLFY">     1</i>
   <i type="int" name="NKREDLFZ">     1</i>
   <i type="int" name="MAXMEM">  2800</i>
   <i type="int" name="TELESCOPE">     0</i>
   <i type="int" name="TAUPAR">     1</i>
   <i type="int" name="OMEGAPAR">    -1</i>
   <i name="LAMBDA">      1.00000000</i>
  </separator>
  <separator name="External order field" >
   <i name="OFIELD_KAPPA">      0.00000000</i>
   <v name="OFIELD_K">      0.00000000      0.00000000      0.00000000</v>
   <i name="OFIELD_Q6_NEAR">      0.00000000</i>
   <i name="OFIELD_Q6_FAR">      0.00000000</i>
   <i name="OFIELD_A">      0.00000000</i>
  </separator>
 </parameters>
 <atominfo>
  <atoms>       2 </atoms>
  <types>       1 </types>
  <array name="atoms" >
   <dimension dim="1">ion</dimension>
   <field type="string">element</field>
   <field type="int">atomtype</field>
   <set>
    <rc><c>C </c><c>   1</c></rc>
    <rc><c>C </c><c>   1</c></rc>
   </set>
  </array>
  <array name="atomtypes" >
   <dimension dim="1">type</dimension>
   <field type="int">atomspertype</field>
   <field type="string">element</field>
   <field>mass</field>
   <field>valence</field>
   <field type="string">pseudopotential</field>
   <set>
    <rc><c>   2</c><c>C </c><c>     12.01100000</c><c>      4.00000000</c><c>  PAW_PBE C 08Apr2002                   </c></rc>
   </set>
  </array>
 </atominfo>
 <structure name="initialpos" >
  <crystal>
   <varray name="basis" >
    <v>       2.46826903       0.00000000       0.00000000 </v>
    <v>      -1.23413451       2.13758368       0.00000000 </v>
    <v>       0.00000000       0.00000000      14.98738952 </v>
   </varray>
   <i name="volume">     79.07543933 </i>
   <varray name="rec_basis" >
    <v>       0.40514222       0.23390897       0.00000000 </v>
    <v>      -0.00000000       0.46781794       0.00000000 </v>
    <v>       0.00000000       0.00000000       0.06672276 </v>
   </varray>
  </crystal>
  <varray name="positions" >
   <v>       0.00000000       0.00000000       0.50000000 </v>
   <v>       0.66666667       0.33333333       0.50000000 </v>
  </varray>
 </structure>
 <calculation>
  <scstep>
   <time name="dav">    0.06    0.06</time>
   <time name="total">    0.07    0.08</time>
   <energy>
    <i name="alphaZ">      4.15535932 </i>
    <i name="ewald">    833.45714166 </i>
    <i name="hartreedc">  -1052.44293643 </i>
    <i name="XCdc">     26.34741216 </i>
    <i name="pawpsdc">    217.04409276 </i>
    <i name="pawaedc">   -218.18290438 </i>
    <i name="eentropy">     -0.00206075 </i>
    <i name="bandstr">    -57.11655109 </i>
    <i name="atom">    294.29684335 </i>
    <i name="e_fr_energy">     47.55639661 </i>
    <i name="e_wo_entrp">     47.55845736 </i>
    <i name="e_0_energy">     47.55742699 </i>
   </energy>
  </scstep>
  <scstep>
   <time name="dav">    0.07    0.07</time>
   <time name="total">    0.07    0.07</time>
   <energy>
    <i name="e_fr_energy">    -15.86189675 </i>
    <i name="e_wo_entrp">    -15.86052550 </i>
    <i name="e_0_energy">    -15.86121112 </i>
   </energy>
  </scstep>
  <scstep>
   <time name="dav">    0.08    0.08</time>
   <time name="total">    0.08    0.08</time>
   <energy>
    <i name="e_fr_energy">    -19.67910592 </i>
    <i name="e_wo_entrp">    -19.67860450 </i>
    <i name="e_0_energy">    -19.67885521 </i>
   </energy>
  </scstep>
  <scstep>
   <time name="dav">    0.07    0.08</time>
   <time name="total">    0.08    0.08</time>
   <energy>
    <i name="e_fr_energy">    -19.71049038 </i>
    <i name="e_wo_entrp">    -19.70998888 </i>
    <i name="e_0_energy">    -19.71023963 </i>
   </energy>
  </scstep>
  <scstep>
   <time name="dav">    0.07    0.08</time>
   <time name="total">    0.08    0.08</time>
   <energy>
    <i name="e_fr_energy">    -19.71068033 </i>
    <i name="e_wo_entrp">    -19.71017883 </i>
    <i name="e_0_energy">    -19.71042958 </i>
   </energy>
  </scstep>
  <scstep>
   <time name="dav">    0.06    0.06</time>
   <time name="total">    0.09    0.09</time>
   <energy>
    <i name="e_fr_energy">    -18.80492337 </i>
    <i name="e_wo_entrp">    -18.80442186 </i>
    <i name="e_0_energy">    -18.80467261 </i>
   </energy>
  </scstep>
  <scstep>
   <time name="dav">    0.07    0.07</time>
   <time name="total">    0.09    0.10</time>
   <energy>
    <i name="e_fr_energy">    -18.45564980 </i>
    <i name="e_wo_entrp">    -18.45514829 </i>
    <i name="e_0_energy">    -18.45539904 </i>
   </energy>
  </scstep>
  <scstep>
   <time name="dav">    0.07    0.07</time>
   <time name="total">    0.09    0.09</time>
   <energy>
    <i name="e_fr_energy">    -18.44806327 </i>
    <i name="e_wo_entrp">    -18.44756177 </i>
    <i name="e_0_energy">    -18.44781252 </i>
   </energy>
  </scstep>
  <scstep>
   <time name="dav">    0.07    0.07</time>
   <time name="total">    0.09    0.09</time>
   <energy>
    <i name="e_fr_energy">    -18.44684874 </i>
    <i name="e_wo_entrp">    -18.44634724 </i>
    <i name="e_0_energy">    -18.44659799 </i>
   </energy>
  </scstep>
  <scstep>
   <time name="dav">    0.06    0.06</time>
   <time name="total">    0.09    0.09</time>
   <energy>
    <i name="e_fr_energy">    -18.44473905 </i>
    <i name="e_wo_entrp">    -18.44423755 </i>
    <i name="e_0_energy">    -18.44448830 </i>
   </energy>
  </scstep>
  <scstep>
   <time name="dav">    0.05    0.05</time>
   <time name="total">    0.07    0.08</time>
   <energy>
    <i name="e_fr_energy">    -18.44498113 </i>
    <i name="e_wo_entrp">    -18.44447963 </i>
    <i name="e_0_energy">    -18.44473038 </i>
   </energy>
  </scstep>
  <scstep>
   <time name="dav">    0.06    0.06</time>
   <time name="total">    0.09    0.09</time>
   <energy>
    <i name="e_fr_energy">    -18.44515501 </i>
    <i name="e_wo_entrp">    -18.44465351 </i>
    <i name="e_0_energy">    -18.44490426 </i>
   </energy>
  </scstep>
  <scstep>
   <time name="dav">    0.06    0.06</time>
   <time name="total">    0.08    0.08</time>
   <energy>
    <i name="e_fr_energy">    -18.44590402 </i>
    <i name="e_wo_entrp">    -18.44540252 </i>
    <i name="e_0_energy">    -18.44565327 </i>
   </energy>
  </scstep>
  <scstep>
   <time name="dav">    0.07    0.07</time>
   <time name="total">    0.08    0.09</time>
   <energy>
    <i name="e_fr_energy">    -18.44594545 </i>
    <i name="e_wo_entrp">    -18.44544394 </i>
    <i name="e_0_energy">    -18.44569470 </i>
   </energy>
  </scstep>
  <scstep>
   <time name="dav">    0.05    0.05</time>
   <time name="total">    0.07    0.08</time>
   <energy>
    <i name="e_fr_energy">    -18.44606131 </i>
    <i name="e_wo_entrp">    -18.44555981 </i>
    <i name="e_0_energy">    -18.44581056 </i>
   </energy>
  </scstep>
  <scstep>
   <time name="dav">    0.06    0.06</time>
   <time name="total">    0.08    0.09</time>
   <energy>
    <i name="e_fr_energy">    -18.44606723 </i>
    <i name="e_wo_entrp">    -18.44556573 </i>
    <i name="e_0_energy">    -18.44581648 </i>
   </energy>
  </scstep>
  <scstep>
   <time name="dav">    0.05    0.05</time>
   <time name="total">    0.07    0.07</time>
   <energy>
    <i name="e_fr_energy">    -18.44606973 </i>
    <i name="e_wo_entrp">    -18.44556823 </i>
    <i name="e_0_energy">    -18.44581898 </i>
   </energy>
  </scstep>
  <scstep>
   <time name="dav">    0.06    0.06</time>
   <time name="total">    0.08    0.08</time>
   <energy>
    <i name="e_fr_energy">    -18.44606992 </i>
    <i name="e_wo_entrp">    -18.44556842 </i>
    <i name="e_0_energy">    -18.44581917 </i>
   </energy>
  </scstep>
  <scstep>
   <time name="dav">    0.06    0.06</time>
   <time name="total">    0.08    0.09</time>
   <energy>
    <i name="e_fr_energy">    -18.44606996 </i>
    <i name="e_wo_entrp">    -18.44556845 </i>
    <i name="e_0_energy">    -18.44581920 </i>
   </energy>
  </scstep>
  <scstep>
   <time name="dav">    0.06    0.06</time>
   <time name="total">    0.07    0.07</time>
   <energy>
    <i name="alphaZ">      4.15535932 </i>
    <i name="ewald">    833.45714166 </i>
    <i name="hartreedc">  -1085.46760555 </i>
    <i name="XCdc">     27.52693263 </i>
    <i name="pawpsdc">    833.87627483 </i>
    <i name="pawaedc">   -835.24329642 </i>
    <i name="eentropy">     -0.00050150 </i>
    <i name="bandstr">    -91.04721828 </i>
    <i name="atom">    294.29684335 </i>
    <i name="e_fr_energy">    -18.44606996 </i>
    <i name="e_wo_entrp">    -18.44556846 </i>
    <i name="e_0_energy">    -18.44581921 </i>
   </energy>
  </scstep>
  <structure>
   <crystal>
    <varray name="basis" >
     <v>       2.46826903       0.00000000       0.00000000 </v>
     <v>      -1.23413451       2.13758368       0.00000000 </v>
     <v>       0.00000000       0.00000000      14.98738952 </v>
    </varray>
    <i name="volume">     79.07543933 </i>
    <varray name="rec_basis" >
     <v>       0.40514222       0.23390897       0.00000000 </v>
     <v>      -0.00000000       0.46781794       0.00000000 </v>
     <v>       0.00000000       0.00000000       0.06672276 </v>
    </varray>
   </crystal>
   <varray name="positions" >
    <v>       0.00000000       0.00000000       0.50000000 </v>
    <v>       0.66666667       0.33333333       0.50000000 </v>
   </varray>
  </structure>
  <varray name="forces" >
   <v>       0.00000000      -0.00000000       0.00000000 </v>
   <v>      -0.00000000       0.00000000       0.00000000 </v>
  </varray>
  <varray name="stress" >
   <v>      -0.36318765      -0.00000000       0.00000000 </v>
   <v>      -0.00000000      -0.36318765       0.00000000 </v>
   <v>      -0.00000000      -0.00000000      -0.24984297 </v>
  </varray>
  <energy>
   <i name="e_fr_energy">    -18.51499218 </i>
   <i name="e_wo_entrp">    -18.51474143 </i>
   <i name="e_0_energy">     -0.00050150 </i>
  </energy>
  <time name="totalsc">    2.02    2.10</time>
  <eigenvalues>
   <array>
    <dimension dim="1">band</dimension>
    <dimension dim="2">kpoint</dimension>
    <dimension dim="3">spin</dimension>
    <field>eigene</field>
    <field>occ</field>
    <set>
     <set comment="spin 1">
      <set comment="kpoint 1">
       <r>  -21.7471    1.0000 </r>
       <r>   -9.8531    1.0000 </r>
       <r>   -5.2862    1.0000 </r>
       <r>   -5.2862    1.0000 </r>
       <r>    1.0089    0.0000 </r>
       <r>    1.9104    0.0000 </r>
       <r>    2.4768    0.0000 </r>
       <r>    4.3290    0.0000 </r>
      </set>
      <set comment="kpoint 2">
       <r>  -21.6422    1.0000 </r>
       <r>   -9.7280    1.0000 </r>
       <r>   -5.7104    1.0000 </r>
       <r>   -5.5076    1.0000 </r>
       <r>    1.1513    0.0000 </r>
       <r>    2.0540    0.0000 </r>
       <r>    2.6217    0.0000 </r>
       <r>    4.4716    0.0000 </r>
      </set>
      <set comment="kpoint 3">
       <r>  -21.3282    1.0000 </r>
       <r>   -9.3548    1.0000 </r>
       <r>   -6.8372    1.0000 </r>
       <r>   -6.0687    1.0000 </r>
       <r>    1.5784    0.0000 </r>
       <r>    2.4840    0.0000 </r>
       <r>    3.0566    0.0000 </r>
       <r>    4.8984    0.0000 </r>
      </set>
      <set comment="kpoint 4">
       <r>  -20.8075    1.0000 </r>
       <r>   -8.7405    1.0000 </r>
       <r>   -8.3822    1.0000 </r>
       <r>   -6.7705    1.0000 </r>
       <r>    2.2897    0.0000 </r>
       <r>    3.1976    0.0000 </r>
       <r>    3.7812    0.0000 </r>
       <r>    5.5962    0.0000 </r>
      </set>
      <set comment="kpoint 5">
       <r>  -20.0843    1.0000 </r>
       <r>  -10.1107    1.0000 </r>
       <r>   -7.9004    1.0000 </r>
       <r>   -7.4534    1.0000 </r>
       <r>    3.2831    0.0000 </r>
       <r>    4.1256    0.0000 </r>
       <r>    4.5838    0.0000 </r>
       <r>    4.7927    0.0000 </r>
      </set>
      <set comment="kpoint 6">
       <r>  -19.1662    1.0000 </r>
       <r>  -11.8713    1.0000 </r>
       <r>   -8.0216    1.0000 </r>
       <r>   -6.8674    1.0000 </r>
       <r>    2.6384    0.0000 </r>
       <r>    4.5485    0.0000 </r>
       <r>    5.4322    0.0000 </r>
       <r>    6.1117    0.0000 </r>
      </set>
      <set comment="kpoint 7">
       <r>  -18.0699    1.0000 </r>
       <r>  -13.5654    1.0000 </r>
       <r>   -8.4224    1.0000 </r>
       <r>   -5.7280    1.0000 </r>
       <r>    0.8982    0.0000 </r>
       <r>    5.2040    0.0000 </r>
       <r>    6.1302    0.0000 </r>
       <r>    7.0549    0.0000 </r>
      </set>
      <set comment="kpoint 8">
       <r>  -16.8749    1.0000 </r>
       <r>  -15.0689    1.0000 </r>
       <r>   -8.6286    1.0000 </r>
       <r>   -4.7757    1.0000 </r>
       <r>   -0.3738    0.0000 </r>
       <r>    5.1058    0.0000 </r>
       <r>    7.9306    0.0000 </r>
       <r>    8.8601    0.0000 </r>
      </set>
      <set comment="kpoint 9">
       <r>  -21.4328    1.0000 </r>
       <r>   -9.4788    1.0000 </r>
       <r>   -6.4344    1.0000 </r>
       <r>   -5.9509    1.0000 </r>
       <r>    1.4361    0.0000 </r>
       <r>    2.3408    0.0000 </r>
       <r>    2.9117    0.0000 </r>
       <r>    4.7564    0.0000 </r>
      </set>
      <set comment="kpoint 10">
       <r>  -21.0154    1.0000 </r>
       <r>   -8.9848    1.0000 </r>
       <r>   -7.6813    1.0000 </r>
       <r>   -6.6735    1.0000 </r>
       <r>    2.0057    0.0000 </r>
       <r>    2.9132    0.0000 </r>
       <r>    3.4916    0.0000 </r>
       <r>    5.3236    0.0000 </r>
      </set>
      <set comment="kpoint 11">
       <r>  -20.3935    1.0000 </r>
       <r>   -9.2595    1.0000 </r>
       <r>   -8.2564    1.0000 </r>
       <r>   -7.4262    1.0000 </r>
       <r>    2.8587    0.0000 </r>
       <r>    3.7634    0.0000 </r>
       <r>    4.3610    0.0000 </r>
       <r>    5.2732    0.0000 </r>
      </set>
      <set comment="kpoint 12">
       <r>  -19.5727    1.0000 </r>
       <r>  -10.9734    1.0000 </r>
       <r>   -8.0833    1.0000 </r>
       <r>   -7.3155    1.0000 </r>
       <r>    3.4735    0.0000 </r>
       <r>    3.9917    0.0000 </r>
       <r>    4.9337    0.0000 </r>
       <r>    5.5133    0.0000 </r>
      </set>
      <set comment="kpoint 13">
       <r>  -18.5641    1.0000 </r>
       <r>  -12.6867    1.0000 </r>
       <r>   -8.5830    1.0000 </r>
       <r>   -6.2130    1.0000 </r>
       <r>    1.6951    0.0000 </r>
       <r>    5.3792    0.0000 </r>
       <r>    5.8075    0.0000 </r>
       <r>    6.3391    0.0000 </r>
      </set>
      <set comment="kpoint 14">
       <r>  -17.3986    1.0000 </r>
       <r>  -14.2981    1.0000 </r>
       <r>   -8.8932    1.0000 </r>
       <r>   -5.1011    1.0000 </r>
       <r>    0.1367    0.0000 </r>
       <r>    5.6115    0.0000 </r>
       <r>    7.1004    0.0000 </r>
       <r>    8.0097    0.0000 </r>
      </set>
      <set comment="kpoint 15">
       <r>  -16.4501    1.0000 </r>
       <r>  -15.3989    1.0000 </r>
       <r>   -8.9981    1.0000 </r>
       <r>   -4.5153    1.0000 </r>
       <r>   -0.6041    0.0000 </r>
       <r>    5.5602    0.0000 </r>
       <r>    8.9437    0.0000 </r>
       <r>    9.1016    0.0000 </r>
      </set>
      <set comment="kpoint 16">
       <r>  -20.4969    1.0000 </r>
       <r>   -8.7799    1.0000 </r>
       <r>   -8.3759    1.0000 </r>
       <r>   -7.6308    1.0000 </r>
       <r>    2.7173    0.0000 </r>
       <r>    3.6262    0.0000 </r>
       <r>    4.2168    0.0000 </r>
       <r>    5.5692    0.0000 </r>
      </set>
      <set comment="kpoint 17">
       <r>  -19.7772    1.0000 </r>
       <r>  -10.1709    1.0000 </r>
       <r>   -8.5325    1.0000 </r>
       <r>   -7.5429    1.0000 </r>
       <r>    3.7111    0.0000 </r>
       <r>    4.0168    0.0000 </r>
       <r>    4.6266    0.0000 </r>
       <r>    5.2313    0.0000 </r>
      </set>
      <set comment="kpoint 18">
       <r>  -18.8650    1.0000 </r>
       <r>  -11.7565    1.0000 </r>
       <r>   -9.2038    1.0000 </r>
       <r>   -6.5169    1.0000 </r>
       <r>    2.3554    0.0000 </r>
       <r>    4.9824    0.0000 </r>
       <r>    5.8888    0.0000 </r>
       <r>    6.5301    0.0000 </r>
      </set>
      <set comment="kpoint 19">
       <r>  -17.7781    1.0000 </r>
       <r>  -13.3628    1.0000 </r>
       <r>   -9.6467    1.0000 </r>
       <r>   -5.3774    1.0000 </r>
       <r>    0.7348    0.0000 </r>
       <r>    6.5080    0.0000 </r>
       <r>    6.9653    0.0000 </r>
       <r>    7.4015    0.0000 </r>
      </set>
      <set comment="kpoint 20">
       <r>  -16.5981    1.0000 </r>
       <r>  -14.8200    1.0000 </r>
       <r>   -9.8678    1.0000 </r>
       <r>   -4.4030    1.0000 </r>
       <r>   -0.4982    0.0000 </r>
       <r>    6.8286    0.0000 </r>
       <r>    8.3295    0.0000 </r>
       <r>    9.0439    0.0000 </r>
      </set>
      <set comment="kpoint 21">
       <r>  -18.9660    1.0000 </r>
       <r>  -11.1839    1.0000 </r>
       <r>   -9.6992    1.0000 </r>
       <r>   -6.6202    1.0000 </r>
       <r>    2.6259    0.0000 </r>
       <r>    4.8429    0.0000 </r>
       <r>    5.7309    0.0000 </r>
       <r>    6.3903    0.0000 </r>
      </set>
      <set comment="kpoint 22">
       <r>  -17.9728    1.0000 </r>
       <r>  -12.4633    1.0000 </r>
       <r>  -10.5163    1.0000 </r>
       <r>   -5.5315    1.0000 </r>
       <r>    1.1561    0.0000 </r>
       <r>    6.2456    0.0000 </r>
       <r>    7.0721    0.0000 </r>
       <r>    7.8339    0.0000 </r>
      </set>
      <set comment="kpoint 23">
       <r>  -16.8324    1.0000 </r>
       <r>  -13.8826    1.0000 </r>
       <r>  -10.9426    1.0000 </r>
       <r>   -4.4000    1.0000 </r>
       <r>   -0.2264    0.0000 </r>
       <r>    7.8929    0.0000 </r>
       <r>    8.4527    0.0000 </r>
       <r>    8.6137    0.0000 </r>
      </set>
      <set comment="kpoint 24">
       <r>  -15.9106    1.0000 </r>
       <r>  -14.9132    1.0000 </r>
       <r>  -11.0753    1.0000 </r>
       <r>   -3.7543    1.0000 </r>
       <r>   -0.9604    0.0000 </r>
       <r>    8.5322    0.0000 </r>
       <r>    9.0682    0.0000 </r>
       <r>    9.6422    0.0000 </r>
      </set>
      <set comment="kpoint 25">
       <r>  -16.9195    1.0000 </r>
       <r>  -13.2462    1.0000 </r>
       <r>  -11.6333    1.0000 </r>
       <r>   -4.4126    1.0000 </r>
       <r>   -0.0845    0.0000 </r>
       <r>    7.7607    0.0000 </r>
       <r>    8.2162    0.0000 </r>
       <r>    9.4146    0.0000 </r>
      </set>
      <set comment="kpoint 26">
       <r>  -15.7873    1.0000 </r>
       <r>  -14.2877    1.0000 </r>
       <r>  -12.1727    1.0000 </r>
       <r>   -3.3373    1.0000 </r>
       <r>   -1.2150    0.0000 </r>
       <r>    8.5509    0.0000 </r>
       <r>    9.4460    0.0000 </r>
       <r>   10.2802    0.0000 </r>
      </set>
      <set comment="kpoint 27">
       <r>  -14.8371    1.0000 </r>
       <r>  -14.8371    1.0000 </r>
       <r>  -12.7805    1.0000 </r>
       <r>   -2.2569    0.5000 </r>
       <r>   -2.2569    0.5000 </r>
       <r>    8.3577    0.0000 </r>
       <r>   10.6119    0.0000 </r>
       <r>   10.6119    0.0000 </r>
      </set>
     </set>
    </set>
   </array>
  </eigenvalues>
  <separator name="orbital magnetization" >
   <v name="MAGDIPOLOUT">      0.00000000      0.00000000      0.00000000</v>
  </separator>
  <dos>
   <i name="efermi">     -2.25690627 </i>
   <total>
    <array>
     <dimension dim="1">gridpoints</dimension>
     <dimension dim="2">spin</dimension>
     <field>energy</field>
     <field>total</field>
     <field>integrated</field>
     <set>
      <set comment="spin 1">
       <r>   -23.3650     0.0000     0.0000 </r>
       <r>   -23.3473     0.0000     0.0000 </r>
       <r>   -23.3295     0.0000     0.0000 </r>
       <r>   -23.3117     0.0000     0.0000 </r>
       <r>   -23.2939     0.0000     0.0000 </r>
       <r>   -23.2761     0.0000     0.0000 </r>
       <r>   -23.2583     0.0000     0.0000 </r>
       <r>   -23.2405     0.0000     0.0000 </r>
       <r>   -23.2227     0.0000     0.0000 </r>
       <r>   -23.2049     0.0000     0.0000 </r>
       <r>   -23.1871     0.0000     0.0000 </r>
       <r>   -23.1693     0.0000     0.0000 </r>
       <r>   -23.1515     0.0000     0.0000 </r>
       <r>   -23.1337     0.0000     0.0000 </r>
       <r>   -23.1159     0.0000     0.0000 </r>
       <r>   -23.0981     0.0000     0.0000 </r>
       <r>   -23.0803     0.0000     0.0000 </r>
       <r>   -23.0625     0.0000     0.0000 </r>
       <r>   -23.0447     0.0000     0.0000 </r>
       <r>   -23.0269     0.0000     0.0000 </r>
       <r>   -23.0091     0.0000     0.0000 </r>
       <r>   -22.9913     0.0000     0.0000 </r>
       <r>   -22.9735     0.0000     0.0000 </r>
       <r>   -22.9557     0.0000     0.0000 </r>
       <r>   -22.9379     0.0000     0.0000 </r>
       <r>   -22.9201     0.0000     0.0000 </r>
       <r>   -22.9023     0.0000     0.0000 </r>
       <r>   -22.8845     0.0000     0.0000 </r>
       <r>   -22.8667     0.0000     0.0000 </r>
       <r>   -22.8489     0.0000     0.0000 </r>
       <r>   -22.8311     0.0000     0.0000 </r>
       <r>   -22.8133     0.0000     0.0000 </r>
       <r>   -22.7955     0.0000     0.0000 </r>
       <r>   -22.7777     0.0000     0.0000 </r>
       <r>   -22.7599     0.0000     0.0000 </r>
       <r>   -22.7421     0.0000     0.0000 </r>
       <r>   -22.7243     0.0000     0.0000 </r>
       <r>   -22.7065     0.0000     0.0000 </r>
       <r>   -22.6887     0.0000     0.0000 </r>
       <r>   -22.6709     0.0000     0.0000 </r>
       <r>   -22.6532     0.0000     0.0000 </r>
       <r>   -22.6354     0.0000     0.0000 </r>
       <r>   -22.6176     0.0000     0.0000 </r>
       <r>   -22.5998     0.0000     0.0000 </r>
       <r>   -22.5820     0.0000     0.0000 </r>
       <r>   -22.5642     0.0000     0.0000 </r>
       <r>   -22.5464     0.0000     0.0000 </r>
       <r>   -22.5286     0.0000     0.0000 </r>
       <r>   -22.5108     0.0000     0.0000 </r>
       <r>   -22.4930     0.0000     0.0000 </r>
       <r>   -22.4752     0.0000     0.0000 </r>
       <r>   -22.4574     0.0000     0.0000 </r>
       <r>   -22.4396     0.0000     0.0000 </r>
       <r>   -22.4218     0.0000     0.0000 </r>
       <r>   -22.4040     0.0000     0.0000 </r>
       <r>   -22.3862     0.0000     0.0000 </r>
       <r>   -22.3684     0.0000     0.0000 </r>
       <r>   -22.3506     0.0000     0.0000 </r>
       <r>   -22.3328     0.0000     0.0000 </r>
       <r>   -22.3150     0.0000     0.0000 </r>
       <r>   -22.2972     0.0000     0.0000 </r>
       <r>   -22.2794     0.0000     0.0000 </r>
       <r>   -22.2616     0.0000     0.0000 </r>
       <r>   -22.2438     0.0000     0.0000 </r>
       <r>   -22.2260     0.0000     0.0000 </r>
       <r>   -22.2082     0.0000     0.0000 </r>
       <r>   -22.1904     0.0000     0.0000 </r>
       <r>   -22.1726     0.0000     0.0000 </r>
       <r>   -22.1548     0.0000     0.0000 </r>
       <r>   -22.1370     0.0000     0.0000 </r>
       <r>   -22.1192     0.0000     0.0000 </r>
       <r>   -22.1014     0.0000     0.0000 </r>
       <r>   -22.0836     0.0000     0.0000 </r>
       <r>   -22.0658     0.0000     0.0000 </r>
       <r>   -22.0480     0.0000     0.0000 </r>
       <r>   -22.0302     0.0000     0.0000 </r>
       <r>   -22.0124     0.0000     0.0000 </r>
       <r>   -21.9946     0.0000     0.0000 </r>
       <r>   -21.9768     0.0000     0.0000 </r>
       <r>   -21.9591     0.0000     0.0000 </r>
       <r>   -21.9413     0.0000     0.0000 </r>
       <r>   -21.9235     0.0000     0.0000 </r>
       <r>   -21.9057     0.0000     0.0000 </r>
       <r>   -21.8879     0.0000     0.0000 </r>
       <r>   -21.8701     0.0001     0.0000 </r>
       <r>   -21.8523     0.0006     0.0000 </r>
       <r>   -21.8345     0.0026     0.0001 </r>
       <r>   -21.8167     0.0089     0.0002 </r>
       <r>   -21.7989     0.0235     0.0006 </r>
       <r>   -21.7811     0.0484     0.0015 </r>
       <r>   -21.7633     0.0784     0.0029 </r>
       <r>   -21.7455     0.1015     0.0047 </r>
       <r>   -21.7277     0.1132     0.0067 </r>
       <r>   -21.7099     0.1323     0.0091 </r>
       <r>   -21.6921     0.1969     0.0126 </r>
       <r>   -21.6743     0.3284     0.0184 </r>
       <r>   -21.6565     0.4896     0.0271 </r>
       <r>   -21.6387     0.5908     0.0376 </r>
       <r>   -21.6209     0.5612     0.0476 </r>
       <r>   -21.6031     0.4168     0.0551 </r>
       <r>   -21.5853     0.2417     0.0594 </r>
       <r>   -21.5675     0.1095     0.0613 </r>
       <r>   -21.5497     0.0398     0.0620 </r>
       <r>   -21.5319     0.0168     0.0623 </r>
       <r>   -21.5141     0.0268     0.0628 </r>
       <r>   -21.4963     0.0766     0.0641 </r>
       <r>   -21.4785     0.1849     0.0674 </r>
       <r>   -21.4607     0.3501     0.0737 </r>
       <r>   -21.4429     0.5181     0.0829 </r>
       <r>   -21.4251     0.6026     0.0936 </r>
       <r>   -21.4073     0.5637     0.1036 </r>
       <r>   -21.3895     0.4617     0.1119 </r>
       <r>   -21.3717     0.4085     0.1191 </r>
       <r>   -21.3539     0.4602     0.1273 </r>
       <r>   -21.3361     0.5623     0.1373 </r>
       <r>   -21.3183     0.6029     0.1481 </r>
       <r>   -21.3005     0.5202     0.1573 </r>
       <r>   -21.2827     0.3529     0.1636 </r>
       <r>   -21.2649     0.1871     0.1669 </r>
       <r>   -21.2472     0.0774     0.1683 </r>
       <r>   -21.2294     0.0250     0.1688 </r>
       <r>   -21.2116     0.0063     0.1689 </r>
       <r>   -21.1938     0.0012     0.1689 </r>
       <r>   -21.1760     0.0002     0.1689 </r>
       <r>   -21.1582     0.0002     0.1689 </r>
       <r>   -21.1404     0.0011     0.1689 </r>
       <r>   -21.1226     0.0061     0.1690 </r>
       <r>   -21.1048     0.0272     0.1695 </r>
       <r>   -21.0870     0.0945     0.1712 </r>
       <r>   -21.0692     0.2562     0.1757 </r>
       <r>   -21.0514     0.5420     0.1854 </r>
       <r>   -21.0336     0.8945     0.2013 </r>
       <r>   -21.0158     1.1518     0.2218 </r>
       <r>   -20.9980     1.1574     0.2424 </r>
       <r>   -20.9802     0.9074     0.2586 </r>
       <r>   -20.9624     0.5551     0.2684 </r>
       <r>   -20.9446     0.2651     0.2732 </r>
       <r>   -20.9268     0.0996     0.2749 </r>
       <r>   -20.9090     0.0337     0.2755 </r>
       <r>   -20.8912     0.0272     0.2760 </r>
       <r>   -20.8734     0.0678     0.2772 </r>
       <r>   -20.8556     0.1671     0.2802 </r>
       <r>   -20.8378     0.3264     0.2860 </r>
       <r>   -20.8200     0.4978     0.2949 </r>
       <r>   -20.8022     0.5925     0.3054 </r>
       <r>   -20.7844     0.5503     0.3152 </r>
       <r>   -20.7666     0.3987     0.3223 </r>
       <r>   -20.7488     0.2254     0.3263 </r>
       <r>   -20.7310     0.0994     0.3281 </r>
       <r>   -20.7132     0.0342     0.3287 </r>
       <r>   -20.6954     0.0092     0.3288 </r>
       <r>   -20.6776     0.0019     0.3289 </r>
       <r>   -20.6598     0.0003     0.3289 </r>
       <r>   -20.6420     0.0001     0.3289 </r>
       <r>   -20.6242     0.0004     0.3289 </r>
       <r>   -20.6064     0.0024     0.3289 </r>
       <r>   -20.5886     0.0112     0.3291 </r>
       <r>   -20.5708     0.0404     0.3299 </r>
       <r>   -20.5531     0.1134     0.3319 </r>
       <r>   -20.5353     0.2482     0.3363 </r>
       <r>   -20.5175     0.4248     0.3439 </r>
       <r>   -20.4997     0.5711     0.3540 </r>
       <r>   -20.4819     0.6161     0.3650 </r>
       <r>   -20.4641     0.5764     0.3752 </r>
       <r>   -20.4463     0.5697     0.3854 </r>
       <r>   -20.4285     0.7090     0.3980 </r>
       <r>   -20.4107     0.9697     0.4153 </r>
       <r>   -20.3929     1.1766     0.4362 </r>
       <r>   -20.3751     1.1537     0.4567 </r>
       <r>   -20.3573     0.8902     0.4726 </r>
       <r>   -20.3395     0.5371     0.4821 </r>
       <r>   -20.3217     0.2529     0.4866 </r>
       <r>   -20.3039     0.0929     0.4883 </r>
       <r>   -20.2861     0.0266     0.4888 </r>
       <r>   -20.2683     0.0060     0.4889 </r>
       <r>   -20.2505     0.0010     0.4889 </r>
       <r>   -20.2327     0.0002     0.4889 </r>
       <r>   -20.2149     0.0003     0.4889 </r>
       <r>   -20.1971     0.0018     0.4889 </r>
       <r>   -20.1793     0.0087     0.4891 </r>
       <r>   -20.1615     0.0327     0.4897 </r>
       <r>   -20.1437     0.0958     0.4914 </r>
       <r>   -20.1259     0.2194     0.4953 </r>
       <r>   -20.1081     0.3918     0.5022 </r>
       <r>   -20.0903     0.5459     0.5120 </r>
       <r>   -20.0725     0.5936     0.5225 </r>
       <r>   -20.0547     0.5036     0.5315 </r>
       <r>   -20.0369     0.3333     0.5374 </r>
       <r>   -20.0191     0.1722     0.5405 </r>
       <r>   -20.0013     0.0694     0.5417 </r>
       <r>   -19.9835     0.0218     0.5421 </r>
       <r>   -19.9657     0.0053     0.5422 </r>
       <r>   -19.9479     0.0010     0.5422 </r>
       <r>   -19.9301     0.0002     0.5422 </r>
       <r>   -19.9123     0.0004     0.5422 </r>
       <r>   -19.8945     0.0023     0.5423 </r>
       <r>   -19.8767     0.0119     0.5425 </r>
       <r>   -19.8590     0.0478     0.5433 </r>
       <r>   -19.8412     0.1493     0.5460 </r>
       <r>   -19.8234     0.3640     0.5525 </r>
       <r>   -19.8056     0.6924     0.5648 </r>
       <r>   -19.7878     1.0275     0.5831 </r>
       <r>   -19.7700     1.1898     0.6043 </r>
       <r>   -19.7522     1.0750     0.6234 </r>
       <r>   -19.7344     0.7579     0.6369 </r>
       <r>   -19.7166     0.4170     0.6443 </r>
       <r>   -19.6988     0.1799     0.6475 </r>
       <r>   -19.6810     0.0654     0.6487 </r>
       <r>   -19.6632     0.0405     0.6494 </r>
       <r>   -19.6454     0.0909     0.6510 </r>
       <r>   -19.6276     0.2422     0.6553 </r>
       <r>   -19.6098     0.5198     0.6646 </r>
       <r>   -19.5920     0.8720     0.6801 </r>
       <r>   -19.5742     1.1415     0.7004 </r>
       <r>   -19.5564     1.1659     0.7211 </r>
       <r>   -19.5386     0.9292     0.7377 </r>
       <r>   -19.5208     0.5778     0.7480 </r>
       <r>   -19.5030     0.2803     0.7530 </r>
       <r>   -19.4852     0.1061     0.7548 </r>
       <r>   -19.4674     0.0313     0.7554 </r>
       <r>   -19.4496     0.0072     0.7555 </r>
       <r>   -19.4318     0.0013     0.7556 </r>
       <r>   -19.4140     0.0002     0.7556 </r>
       <r>   -19.3962     0.0000     0.7556 </r>
       <r>   -19.3784     0.0000     0.7556 </r>
       <r>   -19.3606     0.0000     0.7556 </r>
       <r>   -19.3428     0.0000     0.7556 </r>
       <r>   -19.3250     0.0000     0.7556 </r>
       <r>   -19.3072     0.0001     0.7556 </r>
       <r>   -19.2894     0.0006     0.7556 </r>
       <r>   -19.2716     0.0036     0.7556 </r>
       <r>   -19.2538     0.0155     0.7559 </r>
       <r>   -19.2360     0.0526     0.7568 </r>
       <r>   -19.2182     0.1392     0.7593 </r>
       <r>   -19.2004     0.2876     0.7644 </r>
       <r>   -19.1826     0.4633     0.7727 </r>
       <r>   -19.1649     0.5825     0.7831 </r>
       <r>   -19.1471     0.5714     0.7932 </r>
       <r>   -19.1293     0.4373     0.8010 </r>
       <r>   -19.1115     0.2612     0.8057 </r>
       <r>   -19.0937     0.1221     0.8078 </r>
       <r>   -19.0759     0.0466     0.8087 </r>
       <r>   -19.0581     0.0235     0.8091 </r>
       <r>   -19.0403     0.0423     0.8098 </r>
       <r>   -19.0225     0.1120     0.8118 </r>
       <r>   -19.0047     0.2453     0.8162 </r>
       <r>   -18.9869     0.4219     0.8237 </r>
       <r>   -18.9691     0.5708     0.8339 </r>
       <r>   -18.9513     0.6221     0.8449 </r>
       <r>   -18.9335     0.5932     0.8555 </r>
       <r>   -18.9157     0.6013     0.8662 </r>
       <r>   -18.8979     0.7524     0.8796 </r>
       <r>   -18.8801     1.0094     0.8975 </r>
       <r>   -18.8623     1.1910     0.9187 </r>
       <r>   -18.8445     1.1338     0.9389 </r>
       <r>   -18.8267     0.8494     0.9540 </r>
       <r>   -18.8089     0.4976     0.9629 </r>
       <r>   -18.7911     0.2275     0.9669 </r>
       <r>   -18.7733     0.0812     0.9684 </r>
       <r>   -18.7555     0.0226     0.9688 </r>
       <r>   -18.7377     0.0049     0.9689 </r>
       <r>   -18.7199     0.0009     0.9689 </r>
       <r>   -18.7021     0.0004     0.9689 </r>
       <r>   -18.6843     0.0017     0.9689 </r>
       <r>   -18.6665     0.0093     0.9691 </r>
       <r>   -18.6487     0.0387     0.9698 </r>
       <r>   -18.6309     0.1260     0.9720 </r>
       <r>   -18.6131     0.3199     0.9777 </r>
       <r>   -18.5953     0.6338     0.9890 </r>
       <r>   -18.5775     0.9796     1.0064 </r>
       <r>   -18.5597     1.1814     1.0275 </r>
       <r>   -18.5419     1.1118     1.0472 </r>
       <r>   -18.5241     0.8164     1.0618 </r>
       <r>   -18.5063     0.4677     1.0701 </r>
       <r>   -18.4885     0.2091     1.0738 </r>
       <r>   -18.4708     0.0729     1.0751 </r>
       <r>   -18.4530     0.0198     1.0755 </r>
       <r>   -18.4352     0.0042     1.0755 </r>
       <r>   -18.4174     0.0007     1.0756 </r>
       <r>   -18.3996     0.0001     1.0756 </r>
       <r>   -18.3818     0.0000     1.0756 </r>
       <r>   -18.3640     0.0000     1.0756 </r>
       <r>   -18.3462     0.0000     1.0756 </r>
       <r>   -18.3284     0.0000     1.0756 </r>
       <r>   -18.3106     0.0000     1.0756 </r>
       <r>   -18.2928     0.0000     1.0756 </r>
       <r>   -18.2750     0.0000     1.0756 </r>
       <r>   -18.2572     0.0000     1.0756 </r>
       <r>   -18.2394     0.0000     1.0756 </r>
       <r>   -18.2216     0.0000     1.0756 </r>
       <r>   -18.2038     0.0002     1.0756 </r>
       <r>   -18.1860     0.0013     1.0756 </r>
       <r>   -18.1682     0.0066     1.0757 </r>
       <r>   -18.1504     0.0261     1.0762 </r>
       <r>   -18.1326     0.0801     1.0776 </r>
       <r>   -18.1148     0.1920     1.0810 </r>
       <r>   -18.0970     0.3598     1.0874 </r>
       <r>   -18.0792     0.5297     1.0968 </r>
       <r>   -18.0614     0.6243     1.1079 </r>
       <r>   -18.0436     0.6279     1.1191 </r>
       <r>   -18.0258     0.6324     1.1304 </r>
       <r>   -18.0080     0.7547     1.1438 </r>
       <r>   -17.9902     0.9924     1.1615 </r>
       <r>   -17.9724     1.1854     1.1826 </r>
       <r>   -17.9546     1.1583     1.2032 </r>
       <r>   -17.9368     0.8945     1.2191 </r>
       <r>   -17.9190     0.5409     1.2287 </r>
       <r>   -17.9012     0.2566     1.2333 </r>
       <r>   -17.8834     0.1012     1.2351 </r>
       <r>   -17.8656     0.0581     1.2361 </r>
       <r>   -17.8478     0.1116     1.2381 </r>
       <r>   -17.8300     0.2801     1.2431 </r>
       <r>   -17.8122     0.5761     1.2534 </r>
       <r>   -17.7944     0.9275     1.2699 </r>
       <r>   -17.7766     1.1652     1.2906 </r>
       <r>   -17.7589     1.1423     1.3109 </r>
       <r>   -17.7411     0.8738     1.3265 </r>
       <r>   -17.7233     0.5215     1.3358 </r>
       <r>   -17.7055     0.2429     1.3401 </r>
       <r>   -17.6877     0.0882     1.3417 </r>
       <r>   -17.6699     0.0250     1.3421 </r>
       <r>   -17.6521     0.0055     1.3422 </r>
       <r>   -17.6343     0.0010     1.3422 </r>
       <r>   -17.6165     0.0001     1.3422 </r>
       <r>   -17.5987     0.0000     1.3422 </r>
       <r>   -17.5809     0.0000     1.3422 </r>
       <r>   -17.5631     0.0000     1.3422 </r>
       <r>   -17.5453     0.0001     1.3422 </r>
       <r>   -17.5275     0.0007     1.3422 </r>
       <r>   -17.5097     0.0042     1.3423 </r>
       <r>   -17.4919     0.0200     1.3427 </r>
       <r>   -17.4741     0.0734     1.3440 </r>
       <r>   -17.4563     0.2102     1.3477 </r>
       <r>   -17.4385     0.4696     1.3561 </r>
       <r>   -17.4207     0.8184     1.3706 </r>
       <r>   -17.4029     1.1130     1.3904 </r>
       <r>   -17.3851     1.1810     1.4115 </r>
       <r>   -17.3673     0.9778     1.4289 </r>
       <r>   -17.3495     0.6317     1.4401 </r>
       <r>   -17.3317     0.3184     1.4458 </r>
       <r>   -17.3139     0.1252     1.4480 </r>
       <r>   -17.2961     0.0384     1.4487 </r>
       <r>   -17.2783     0.0092     1.4489 </r>
       <r>   -17.2605     0.0017     1.4489 </r>
       <r>   -17.2427     0.0002     1.4489 </r>
       <r>   -17.2249     0.0000     1.4489 </r>
       <r>   -17.2071     0.0000     1.4489 </r>
       <r>   -17.1893     0.0000     1.4489 </r>
       <r>   -17.1715     0.0000     1.4489 </r>
       <r>   -17.1537     0.0000     1.4489 </r>
       <r>   -17.1359     0.0000     1.4489 </r>
       <r>   -17.1181     0.0000     1.4489 </r>
       <r>   -17.1003     0.0000     1.4489 </r>
       <r>   -17.0825     0.0000     1.4489 </r>
       <r>   -17.0648     0.0001     1.4489 </r>
       <r>   -17.0470     0.0004     1.4489 </r>
       <r>   -17.0292     0.0024     1.4489 </r>
       <r>   -17.0114     0.0113     1.4491 </r>
       <r>   -16.9936     0.0413     1.4499 </r>
       <r>   -16.9758     0.1185     1.4520 </r>
       <r>   -16.9580     0.2703     1.4568 </r>
       <r>   -16.9402     0.4980     1.4657 </r>
       <r>   -16.9224     0.7616     1.4792 </r>
       <r>   -16.9046     1.0101     1.4972 </r>
       <r>   -16.8868     1.2272     1.5190 </r>
       <r>   -16.8690     1.4242     1.5444 </r>
       <r>   -16.8512     1.5769     1.5724 </r>
       <r>   -16.8334     1.5959     1.6009 </r>
       <r>   -16.8156     1.3997     1.6258 </r>
       <r>   -16.7978     1.0204     1.6439 </r>
       <r>   -16.7800     0.6019     1.6546 </r>
       <r>   -16.7622     0.2827     1.6597 </r>
       <r>   -16.7444     0.1049     1.6615 </r>
       <r>   -16.7266     0.0312     1.6621 </r>
       <r>   -16.7088     0.0113     1.6623 </r>
       <r>   -16.6910     0.0218     1.6627 </r>
       <r>   -16.6732     0.0754     1.6640 </r>
       <r>   -16.6554     0.2144     1.6678 </r>
       <r>   -16.6376     0.4764     1.6763 </r>
       <r>   -16.6198     0.8260     1.6910 </r>
       <r>   -16.6020     1.1173     1.7109 </r>
       <r>   -16.5842     1.1795     1.7319 </r>
       <r>   -16.5664     0.9725     1.7492 </r>
       <r>   -16.5486     0.6306     1.7604 </r>
       <r>   -16.5308     0.3386     1.7665 </r>
       <r>   -16.5130     0.2014     1.7700 </r>
       <r>   -16.4952     0.2272     1.7741 </r>
       <r>   -16.4774     0.3651     1.7806 </r>
       <r>   -16.4596     0.5230     1.7899 </r>
       <r>   -16.4418     0.5957     1.8005 </r>
       <r>   -16.4240     0.5306     1.8099 </r>
       <r>   -16.4062     0.3689     1.8165 </r>
       <r>   -16.3884     0.2001     1.8201 </r>
       <r>   -16.3707     0.0847     1.8216 </r>
       <r>   -16.3529     0.0280     1.8221 </r>
       <r>   -16.3351     0.0072     1.8222 </r>
       <r>   -16.3173     0.0014     1.8222 </r>
       <r>   -16.2995     0.0002     1.8222 </r>
       <r>   -16.2817     0.0000     1.8222 </r>
       <r>   -16.2639     0.0000     1.8222 </r>
       <r>   -16.2461     0.0000     1.8222 </r>
       <r>   -16.2283     0.0000     1.8222 </r>
       <r>   -16.2105     0.0000     1.8222 </r>
       <r>   -16.1927     0.0000     1.8222 </r>
       <r>   -16.1749     0.0000     1.8222 </r>
       <r>   -16.1571     0.0000     1.8222 </r>
       <r>   -16.1393     0.0000     1.8222 </r>
       <r>   -16.1215     0.0000     1.8222 </r>
       <r>   -16.1037     0.0000     1.8222 </r>
       <r>   -16.0859     0.0000     1.8222 </r>
       <r>   -16.0681     0.0000     1.8222 </r>
       <r>   -16.0503     0.0001     1.8222 </r>
       <r>   -16.0325     0.0007     1.8222 </r>
       <r>   -16.0147     0.0040     1.8223 </r>
       <r>   -15.9969     0.0171     1.8226 </r>
       <r>   -15.9791     0.0570     1.8236 </r>
       <r>   -15.9613     0.1482     1.8263 </r>
       <r>   -15.9435     0.3005     1.8316 </r>
       <r>   -15.9257     0.4756     1.8401 </r>
       <r>   -15.9079     0.5883     1.8505 </r>
       <r>   -15.8901     0.5739     1.8608 </r>
       <r>   -15.8723     0.4621     1.8690 </r>
       <r>   -15.8545     0.3720     1.8756 </r>
       <r>   -15.8367     0.4281     1.8832 </r>
       <r>   -15.8189     0.6666     1.8951 </r>
       <r>   -15.8011     0.9842     1.9126 </r>
       <r>   -15.7833     1.1822     1.9336 </r>
       <r>   -15.7655     1.1167     1.9535 </r>
       <r>   -15.7477     0.8242     1.9682 </r>
       <r>   -15.7299     0.4747     1.9766 </r>
       <r>   -15.7121     0.2133     1.9804 </r>
       <r>   -15.6943     0.0748     1.9818 </r>
       <r>   -15.6766     0.0205     1.9821 </r>
       <r>   -15.6588     0.0044     1.9822 </r>
       <r>   -15.6410     0.0007     1.9822 </r>
       <r>   -15.6232     0.0001     1.9822 </r>
       <r>   -15.6054     0.0000     1.9822 </r>
       <r>   -15.5876     0.0000     1.9822 </r>
       <r>   -15.5698     0.0000     1.9822 </r>
       <r>   -15.5520     0.0000     1.9822 </r>
       <r>   -15.5342     0.0002     1.9822 </r>
       <r>   -15.5164     0.0011     1.9822 </r>
       <r>   -15.4986     0.0059     1.9824 </r>
       <r>   -15.4808     0.0235     1.9828 </r>
       <r>   -15.4630     0.0738     1.9841 </r>
       <r>   -15.4452     0.1804     1.9873 </r>
       <r>   -15.4274     0.3441     1.9934 </r>
       <r>   -15.4096     0.5121     2.0025 </r>
       <r>   -15.3918     0.5947     2.0131 </r>
       <r>   -15.3740     0.5389     2.0227 </r>
       <r>   -15.3562     0.3810     2.0295 </r>
       <r>   -15.3384     0.2102     2.0332 </r>
       <r>   -15.3206     0.0905     2.0348 </r>
       <r>   -15.3028     0.0304     2.0354 </r>
       <r>   -15.2850     0.0080     2.0355 </r>
       <r>   -15.2672     0.0016     2.0356 </r>
       <r>   -15.2494     0.0003     2.0356 </r>
       <r>   -15.2316     0.0000     2.0356 </r>
       <r>   -15.2138     0.0001     2.0356 </r>
       <r>   -15.1960     0.0004     2.0356 </r>
       <r>   -15.1782     0.0025     2.0356 </r>
       <r>   -15.1604     0.0115     2.0358 </r>
       <r>   -15.1426     0.0411     2.0365 </r>
       <r>   -15.1248     0.1148     2.0386 </r>
       <r>   -15.1070     0.2504     2.0430 </r>
       <r>   -15.0892     0.4261     2.0506 </r>
       <r>   -15.0714     0.5658     2.0607 </r>
       <r>   -15.0536     0.5862     2.0711 </r>
       <r>   -15.0358     0.4745     2.0796 </r>
       <r>   -15.0180     0.3026     2.0850 </r>
       <r>   -15.0002     0.1632     2.0879 </r>
       <r>   -14.9824     0.1109     2.0898 </r>
       <r>   -14.9647     0.1602     2.0927 </r>
       <r>   -14.9469     0.2993     2.0980 </r>
       <r>   -14.9291     0.4815     2.1066 </r>
       <r>   -14.9113     0.6344     2.1179 </r>
       <r>   -14.8935     0.7273     2.1308 </r>
       <r>   -14.8757     0.8291     2.1456 </r>
       <r>   -14.8579     1.0431     2.1641 </r>
       <r>   -14.8401     1.3515     2.1882 </r>
       <r>   -14.8223     1.5684     2.2161 </r>
       <r>   -14.8045     1.5011     2.2428 </r>
       <r>   -14.7867     1.1476     2.2632 </r>
       <r>   -14.7689     0.6931     2.2756 </r>
       <r>   -14.7511     0.3293     2.2814 </r>
       <r>   -14.7333     0.1228     2.2836 </r>
       <r>   -14.7155     0.0359     2.2843 </r>
       <r>   -14.6977     0.0082     2.2844 </r>
       <r>   -14.6799     0.0015     2.2844 </r>
       <r>   -14.6621     0.0002     2.2844 </r>
       <r>   -14.6443     0.0000     2.2844 </r>
       <r>   -14.6265     0.0000     2.2844 </r>
       <r>   -14.6087     0.0000     2.2844 </r>
       <r>   -14.5909     0.0000     2.2844 </r>
       <r>   -14.5731     0.0000     2.2844 </r>
       <r>   -14.5553     0.0000     2.2844 </r>
       <r>   -14.5375     0.0000     2.2844 </r>
       <r>   -14.5197     0.0000     2.2844 </r>
       <r>   -14.5019     0.0000     2.2844 </r>
       <r>   -14.4841     0.0000     2.2844 </r>
       <r>   -14.4663     0.0000     2.2844 </r>
       <r>   -14.4485     0.0001     2.2844 </r>
       <r>   -14.4307     0.0006     2.2845 </r>
       <r>   -14.4129     0.0040     2.2845 </r>
       <r>   -14.3951     0.0206     2.2849 </r>
       <r>   -14.3773     0.0834     2.2864 </r>
       <r>   -14.3595     0.2643     2.2911 </r>
       <r>   -14.3417     0.6566     2.3028 </r>
       <r>   -14.3239     1.2787     2.3255 </r>
       <r>   -14.3061     1.9531     2.3603 </r>
       <r>   -14.2883     2.3398     2.4019 </r>
       <r>   -14.2706     2.1988     2.4411 </r>
       <r>   -14.2528     1.6208     2.4699 </r>
       <r>   -14.2350     0.9370     2.4866 </r>
       <r>   -14.2172     0.4248     2.4941 </r>
       <r>   -14.1994     0.1510     2.4968 </r>
       <r>   -14.1816     0.0421     2.4976 </r>
       <r>   -14.1638     0.0092     2.4977 </r>
       <r>   -14.1460     0.0016     2.4978 </r>
       <r>   -14.1282     0.0002     2.4978 </r>
       <r>   -14.1104     0.0000     2.4978 </r>
       <r>   -14.0926     0.0000     2.4978 </r>
       <r>   -14.0748     0.0000     2.4978 </r>
       <r>   -14.0570     0.0000     2.4978 </r>
       <r>   -14.0392     0.0000     2.4978 </r>
       <r>   -14.0214     0.0002     2.4978 </r>
       <r>   -14.0036     0.0016     2.4978 </r>
       <r>   -13.9858     0.0087     2.4980 </r>
       <r>   -13.9680     0.0366     2.4986 </r>
       <r>   -13.9502     0.1205     2.5008 </r>
       <r>   -13.9324     0.3092     2.5063 </r>
       <r>   -13.9146     0.6190     2.5173 </r>
       <r>   -13.8968     0.9667     2.5345 </r>
       <r>   -13.8790     1.1781     2.5555 </r>
       <r>   -13.8612     1.1202     2.5754 </r>
       <r>   -13.8434     0.8311     2.5902 </r>
       <r>   -13.8256     0.4811     2.5987 </r>
       <r>   -13.8078     0.2173     2.6026 </r>
       <r>   -13.7900     0.0766     2.6040 </r>
       <r>   -13.7722     0.0210     2.6043 </r>
       <r>   -13.7544     0.0045     2.6044 </r>
       <r>   -13.7366     0.0008     2.6044 </r>
       <r>   -13.7188     0.0001     2.6044 </r>
       <r>   -13.7010     0.0002     2.6044 </r>
       <r>   -13.6832     0.0011     2.6045 </r>
       <r>   -13.6654     0.0057     2.6046 </r>
       <r>   -13.6476     0.0229     2.6050 </r>
       <r>   -13.6298     0.0722     2.6063 </r>
       <r>   -13.6120     0.1775     2.6094 </r>
       <r>   -13.5942     0.3404     2.6155 </r>
       <r>   -13.5765     0.5092     2.6245 </r>
       <r>   -13.5587     0.5944     2.6351 </r>
       <r>   -13.5409     0.5414     2.6448 </r>
       <r>   -13.5231     0.3848     2.6516 </r>
       <r>   -13.5053     0.2135     2.6554 </r>
       <r>   -13.4875     0.0934     2.6571 </r>
       <r>   -13.4697     0.0374     2.6577 </r>
       <r>   -13.4519     0.0358     2.6584 </r>
       <r>   -13.4341     0.0975     2.6601 </r>
       <r>   -13.4163     0.2592     2.6647 </r>
       <r>   -13.3985     0.5462     2.6744 </r>
       <r>   -13.3807     0.8988     2.6904 </r>
       <r>   -13.3629     1.1549     2.7110 </r>
       <r>   -13.3451     1.1619     2.7317 </r>
       <r>   -13.3273     0.9283     2.7482 </r>
       <r>   -13.3095     0.6284     2.7594 </r>
       <r>   -13.2917     0.4494     2.7674 </r>
       <r>   -13.2739     0.4502     2.7754 </r>
       <r>   -13.2561     0.5470     2.7851 </r>
       <r>   -13.2383     0.6017     2.7958 </r>
       <r>   -13.2205     0.5340     2.8053 </r>
       <r>   -13.2027     0.3724     2.8120 </r>
       <r>   -13.1849     0.2029     2.8156 </r>
       <r>   -13.1671     0.0863     2.8171 </r>
       <r>   -13.1493     0.0286     2.8176 </r>
       <r>   -13.1315     0.0074     2.8177 </r>
       <r>   -13.1137     0.0015     2.8178 </r>
       <r>   -13.0959     0.0002     2.8178 </r>
       <r>   -13.0781     0.0000     2.8178 </r>
       <r>   -13.0603     0.0000     2.8178 </r>
       <r>   -13.0425     0.0000     2.8178 </r>
       <r>   -13.0247     0.0000     2.8178 </r>
       <r>   -13.0069     0.0000     2.8178 </r>
       <r>   -12.9891     0.0000     2.8178 </r>
       <r>   -12.9713     0.0000     2.8178 </r>
       <r>   -12.9535     0.0000     2.8178 </r>
       <r>   -12.9357     0.0000     2.8178 </r>
       <r>   -12.9179     0.0000     2.8178 </r>
       <r>   -12.9001     0.0003     2.8178 </r>
       <r>   -12.8824     0.0016     2.8178 </r>
       <r>   -12.8646     0.0067     2.8179 </r>
       <r>   -12.8468     0.0217     2.8183 </r>
       <r>   -12.8290     0.0548     2.8193 </r>
       <r>   -12.8112     0.1086     2.8212 </r>
       <r>   -12.7934     0.1712     2.8243 </r>
       <r>   -12.7756     0.2254     2.8283 </r>
       <r>   -12.7578     0.2813     2.8333 </r>
       <r>   -12.7400     0.3959     2.8403 </r>
       <r>   -12.7222     0.6265     2.8515 </r>
       <r>   -12.7044     0.9364     2.8682 </r>
       <r>   -12.6866     1.1671     2.8889 </r>
       <r>   -12.6688     1.1571     2.9095 </r>
       <r>   -12.6510     0.9000     2.9255 </r>
       <r>   -12.6332     0.5470     2.9353 </r>
       <r>   -12.6154     0.2595     2.9399 </r>
       <r>   -12.5976     0.0964     2.9416 </r>
       <r>   -12.5798     0.0302     2.9421 </r>
       <r>   -12.5620     0.0190     2.9425 </r>
       <r>   -12.5442     0.0517     2.9434 </r>
       <r>   -12.5264     0.1566     2.9462 </r>
       <r>   -12.5086     0.3770     2.9529 </r>
       <r>   -12.4908     0.7089     2.9655 </r>
       <r>   -12.4730     1.0401     2.9840 </r>
       <r>   -12.4552     1.1907     3.0052 </r>
       <r>   -12.4374     1.0636     3.0241 </r>
       <r>   -12.4196     0.7414     3.0373 </r>
       <r>   -12.4018     0.4032     3.0445 </r>
       <r>   -12.3840     0.1711     3.0476 </r>
       <r>   -12.3662     0.0566     3.0486 </r>
       <r>   -12.3484     0.0146     3.0488 </r>
       <r>   -12.3306     0.0030     3.0489 </r>
       <r>   -12.3128     0.0007     3.0489 </r>
       <r>   -12.2950     0.0014     3.0489 </r>
       <r>   -12.2772     0.0077     3.0491 </r>
       <r>   -12.2594     0.0330     3.0496 </r>
       <r>   -12.2416     0.1108     3.0516 </r>
       <r>   -12.2238     0.2898     3.0568 </r>
       <r>   -12.2060     0.5916     3.0673 </r>
       <r>   -12.1882     0.9420     3.0841 </r>
       <r>   -12.1705     1.1704     3.1049 </r>
       <r>   -12.1527     1.1347     3.1251 </r>
       <r>   -12.1349     0.8584     3.1404 </r>
       <r>   -12.1171     0.5066     3.1494 </r>
       <r>   -12.0993     0.2333     3.1535 </r>
       <r>   -12.0815     0.0838     3.1550 </r>
       <r>   -12.0637     0.0235     3.1554 </r>
       <r>   -12.0459     0.0051     3.1555 </r>
       <r>   -12.0281     0.0009     3.1556 </r>
       <r>   -12.0103     0.0002     3.1556 </r>
       <r>   -11.9925     0.0008     3.1556 </r>
       <r>   -11.9747     0.0043     3.1556 </r>
       <r>   -11.9569     0.0181     3.1560 </r>
       <r>   -11.9391     0.0597     3.1570 </r>
       <r>   -11.9213     0.1535     3.1598 </r>
       <r>   -11.9035     0.3080     3.1652 </r>
       <r>   -11.8857     0.4826     3.1738 </r>
       <r>   -11.8679     0.5927     3.1844 </r>
       <r>   -11.8501     0.5804     3.1947 </r>
       <r>   -11.8323     0.4887     3.2034 </r>
       <r>   -11.8145     0.4480     3.2114 </r>
       <r>   -11.7967     0.5722     3.2216 </r>
       <r>   -11.7789     0.8494     3.2367 </r>
       <r>   -11.7611     1.1195     3.2566 </r>
       <r>   -11.7433     1.1872     3.2777 </r>
       <r>   -11.7255     0.9958     3.2955 </r>
       <r>   -11.7077     0.6789     3.3075 </r>
       <r>   -11.6899     0.4352     3.3153 </r>
       <r>   -11.6721     0.3726     3.3219 </r>
       <r>   -11.6543     0.4593     3.3301 </r>
       <r>   -11.6365     0.5719     3.3403 </r>
       <r>   -11.6187     0.5897     3.3508 </r>
       <r>   -11.6009     0.4798     3.3593 </r>
       <r>   -11.5831     0.3052     3.3647 </r>
       <r>   -11.5653     0.1516     3.3674 </r>
       <r>   -11.5475     0.0587     3.3685 </r>
       <r>   -11.5297     0.0177     3.3688 </r>
       <r>   -11.5119     0.0042     3.3689 </r>
       <r>   -11.4941     0.0008     3.3689 </r>
       <r>   -11.4764     0.0001     3.3689 </r>
       <r>   -11.4586     0.0000     3.3689 </r>
       <r>   -11.4408     0.0000     3.3689 </r>
       <r>   -11.4230     0.0000     3.3689 </r>
       <r>   -11.4052     0.0000     3.3689 </r>
       <r>   -11.3874     0.0000     3.3689 </r>
       <r>   -11.3696     0.0000     3.3689 </r>
       <r>   -11.3518     0.0000     3.3689 </r>
       <r>   -11.3340     0.0000     3.3689 </r>
       <r>   -11.3162     0.0002     3.3689 </r>
       <r>   -11.2984     0.0015     3.3689 </r>
       <r>   -11.2806     0.0076     3.3691 </r>
       <r>   -11.2628     0.0292     3.3696 </r>
       <r>   -11.2450     0.0876     3.3711 </r>
       <r>   -11.2272     0.2053     3.3748 </r>
       <r>   -11.2094     0.3753     3.3815 </r>
       <r>   -11.1916     0.5362     3.3910 </r>
       <r>   -11.1738     0.6016     3.4017 </r>
       <r>   -11.1560     0.5423     3.4114 </r>
       <r>   -11.1382     0.4289     3.4190 </r>
       <r>   -11.1204     0.3748     3.4257 </r>
       <r>   -11.1026     0.4330     3.4334 </r>
       <r>   -11.0848     0.5500     3.4432 </r>
       <r>   -11.0670     0.6220     3.4542 </r>
       <r>   -11.0492     0.6097     3.4651 </r>
       <r>   -11.0314     0.6031     3.4758 </r>
       <r>   -11.0136     0.7598     3.4893 </r>
       <r>   -10.9958     1.1572     3.5099 </r>
       <r>   -10.9780     1.6872     3.5400 </r>
       <r>   -10.9602     2.0933     3.5772 </r>
       <r>   -10.9424     2.1420     3.6153 </r>
       <r>   -10.9246     1.7938     3.6473 </r>
       <r>   -10.9068     1.2230     3.6690 </r>
       <r>   -10.8890     0.6743     3.6810 </r>
       <r>   -10.8712     0.2985     3.6864 </r>
       <r>   -10.8534     0.1053     3.6882 </r>
       <r>   -10.8356     0.0294     3.6888 </r>
       <r>   -10.8178     0.0065     3.6889 </r>
       <r>   -10.8000     0.0011     3.6889 </r>
       <r>   -10.7823     0.0002     3.6889 </r>
       <r>   -10.7645     0.0000     3.6889 </r>
       <r>   -10.7467     0.0000     3.6889 </r>
       <r>   -10.7289     0.0000     3.6889 </r>
       <r>   -10.7111     0.0000     3.6889 </r>
       <r>   -10.6933     0.0000     3.6889 </r>
       <r>   -10.6755     0.0000     3.6889 </r>
       <r>   -10.6577     0.0002     3.6889 </r>
       <r>   -10.6399     0.0012     3.6889 </r>
       <r>   -10.6221     0.0069     3.6890 </r>
       <r>   -10.6043     0.0301     3.6896 </r>
       <r>   -10.5865     0.1027     3.6914 </r>
       <r>   -10.5687     0.2734     3.6963 </r>
       <r>   -10.5509     0.5676     3.7064 </r>
       <r>   -10.5331     0.9195     3.7227 </r>
       <r>   -10.5153     1.1622     3.7434 </r>
       <r>   -10.4975     1.1462     3.7638 </r>
       <r>   -10.4797     0.8821     3.7795 </r>
       <r>   -10.4619     0.5296     3.7889 </r>
       <r>   -10.4441     0.2481     3.7934 </r>
       <r>   -10.4263     0.0907     3.7950 </r>
       <r>   -10.4085     0.0258     3.7954 </r>
       <r>   -10.3907     0.0057     3.7955 </r>
       <r>   -10.3729     0.0010     3.7956 </r>
       <r>   -10.3551     0.0001     3.7956 </r>
       <r>   -10.3373     0.0000     3.7956 </r>
       <r>   -10.3195     0.0001     3.7956 </r>
       <r>   -10.3017     0.0006     3.7956 </r>
       <r>   -10.2839     0.0035     3.7956 </r>
       <r>   -10.2661     0.0170     3.7959 </r>
       <r>   -10.2483     0.0642     3.7971 </r>
       <r>   -10.2305     0.1897     3.8005 </r>
       <r>   -10.2127     0.4387     3.8083 </r>
       <r>   -10.1949     0.7979     3.8225 </r>
       <r>   -10.1771     1.1528     3.8430 </r>
       <r>   -10.1593     1.3508     3.8670 </r>
       <r>   -10.1415     1.3327     3.8907 </r>
       <r>   -10.1237     1.1656     3.9115 </r>
       <r>   -10.1059     0.9401     3.9282 </r>
       <r>   -10.0882     0.6945     3.9406 </r>
       <r>   -10.0704     0.4486     3.9486 </r>
       <r>   -10.0526     0.2411     3.9528 </r>
       <r>   -10.0348     0.1044     3.9547 </r>
       <r>   -10.0170     0.0358     3.9553 </r>
       <r>    -9.9992     0.0102     3.9555 </r>
       <r>    -9.9814     0.0054     3.9556 </r>
       <r>    -9.9636     0.0170     3.9559 </r>
       <r>    -9.9458     0.0639     3.9571 </r>
       <r>    -9.9280     0.1905     3.9605 </r>
       <r>    -9.9102     0.4440     3.9684 </r>
       <r>    -9.8924     0.8086     3.9827 </r>
       <r>    -9.8746     1.1514     4.0032 </r>
       <r>    -9.8568     1.2825     4.0261 </r>
       <r>    -9.8390     1.1195     4.0460 </r>
       <r>    -9.8212     0.7730     4.0597 </r>
       <r>    -9.8034     0.4482     4.0677 </r>
       <r>    -9.7856     0.2932     4.0729 </r>
       <r>    -9.7678     0.3495     4.0792 </r>
       <r>    -9.7500     0.5800     4.0895 </r>
       <r>    -9.7322     0.8949     4.1054 </r>
       <r>    -9.7144     1.1841     4.1265 </r>
       <r>    -9.6966     1.3814     4.1511 </r>
       <r>    -9.6788     1.4965     4.1777 </r>
       <r>    -9.6610     1.5485     4.2053 </r>
       <r>    -9.6432     1.4899     4.2318 </r>
       <r>    -9.6254     1.2559     4.2541 </r>
       <r>    -9.6076     0.8804     4.2698 </r>
       <r>    -9.5898     0.4987     4.2787 </r>
       <r>    -9.5720     0.2319     4.2828 </r>
       <r>    -9.5542     0.1147     4.2848 </r>
       <r>    -9.5364     0.1268     4.2871 </r>
       <r>    -9.5186     0.2399     4.2914 </r>
       <r>    -9.5008     0.4106     4.2987 </r>
       <r>    -9.4830     0.5573     4.3086 </r>
       <r>    -9.4652     0.5926     4.3191 </r>
       <r>    -9.4474     0.4990     4.3280 </r>
       <r>    -9.4296     0.3535     4.3343 </r>
       <r>    -9.4118     0.2674     4.3391 </r>
       <r>    -9.3940     0.3031     4.3445 </r>
       <r>    -9.3763     0.4369     4.3522 </r>
       <r>    -9.3585     0.5770     4.3625 </r>
       <r>    -9.3407     0.6399     4.3739 </r>
       <r>    -9.3229     0.6398     4.3853 </r>
       <r>    -9.3051     0.6929     4.3976 </r>
       <r>    -9.2873     0.9007     4.4137 </r>
       <r>    -9.2695     1.2316     4.4356 </r>
       <r>    -9.2517     1.5463     4.4631 </r>
       <r>    -9.2339     1.7291     4.4939 </r>
       <r>    -9.2161     1.7470     4.5250 </r>
       <r>    -9.1983     1.5934     4.5533 </r>
       <r>    -9.1805     1.2711     4.5759 </r>
       <r>    -9.1627     0.8504     4.5911 </r>
       <r>    -9.1449     0.4617     4.5993 </r>
       <r>    -9.1271     0.1999     4.6028 </r>
       <r>    -9.1093     0.0711     4.6041 </r>
       <r>    -9.0915     0.0344     4.6047 </r>
       <r>    -9.0737     0.0684     4.6059 </r>
       <r>    -9.0559     0.2025     4.6095 </r>
       <r>    -9.0381     0.4962     4.6184 </r>
       <r>    -9.0203     0.9600     4.6355 </r>
       <r>    -9.0025     1.4643     4.6615 </r>
       <r>    -8.9847     1.7693     4.6930 </r>
       <r>    -8.9669     1.7255     4.7237 </r>
       <r>    -8.9491     1.4449     4.7494 </r>
       <r>    -8.9313     1.2066     4.7709 </r>
       <r>    -8.9135     1.1741     4.7918 </r>
       <r>    -8.8957     1.2479     4.8140 </r>
       <r>    -8.8779     1.2115     4.8356 </r>
       <r>    -8.8601     0.9824     4.8531 </r>
       <r>    -8.8423     0.6853     4.8653 </r>
       <r>    -8.8245     0.5088     4.8743 </r>
       <r>    -8.8067     0.5398     4.8839 </r>
       <r>    -8.7889     0.7237     4.8968 </r>
       <r>    -8.7711     0.9268     4.9133 </r>
       <r>    -8.7533     1.0241     4.9315 </r>
       <r>    -8.7355     0.9591     4.9486 </r>
       <r>    -8.7177     0.7622     4.9622 </r>
       <r>    -8.6999     0.5343     4.9717 </r>
       <r>    -8.6822     0.3966     4.9787 </r>
       <r>    -8.6644     0.4300     4.9864 </r>
       <r>    -8.6466     0.6406     4.9978 </r>
       <r>    -8.6288     0.9714     5.0151 </r>
       <r>    -8.6110     1.3395     5.0389 </r>
       <r>    -8.5932     1.6646     5.0685 </r>
       <r>    -8.5754     1.8835     5.1021 </r>
       <r>    -8.5576     1.9600     5.1369 </r>
       <r>    -8.5398     1.8760     5.1703 </r>
       <r>    -8.5220     1.6209     5.1992 </r>
       <r>    -8.5042     1.2307     5.2211 </r>
       <r>    -8.4864     0.8315     5.2359 </r>
       <r>    -8.4686     0.5877     5.2463 </r>
       <r>    -8.4508     0.5923     5.2569 </r>
       <r>    -8.4330     0.8172     5.2714 </r>
       <r>    -8.4152     1.1466     5.2918 </r>
       <r>    -8.3974     1.4303     5.3173 </r>
       <r>    -8.3796     1.5278     5.3445 </r>
       <r>    -8.3618     1.3710     5.3689 </r>
       <r>    -8.3440     1.0302     5.3872 </r>
       <r>    -8.3262     0.6953     5.3996 </r>
       <r>    -8.3084     0.5563     5.4095 </r>
       <r>    -8.2906     0.6789     5.4216 </r>
       <r>    -8.2728     0.9575     5.4386 </r>
       <r>    -8.2550     1.1721     5.4595 </r>
       <r>    -8.2372     1.1436     5.4798 </r>
       <r>    -8.2194     0.8743     5.4954 </r>
       <r>    -8.2016     0.5236     5.5047 </r>
       <r>    -8.1838     0.2538     5.5092 </r>
       <r>    -8.1660     0.1327     5.5116 </r>
       <r>    -8.1482     0.1663     5.5145 </r>
       <r>    -8.1304     0.3565     5.5209 </r>
       <r>    -8.1126     0.6849     5.5331 </r>
       <r>    -8.0948     1.0539     5.5518 </r>
       <r>    -8.0770     1.3053     5.5751 </r>
       <r>    -8.0592     1.3430     5.5990 </r>
       <r>    -8.0414     1.2088     5.6205 </r>
       <r>    -8.0236     1.0028     5.6383 </r>
       <r>    -8.0058     0.7773     5.6522 </r>
       <r>    -7.9881     0.5493     5.6619 </r>
       <r>    -7.9703     0.3638     5.6684 </r>
       <r>    -7.9525     0.2863     5.6735 </r>
       <r>    -7.9347     0.3424     5.6796 </r>
       <r>    -7.9169     0.4791     5.6881 </r>
       <r>    -7.8991     0.5860     5.6986 </r>
       <r>    -7.8813     0.5724     5.7087 </r>
       <r>    -7.8635     0.4381     5.7165 </r>
       <r>    -7.8457     0.2619     5.7212 </r>
       <r>    -7.8279     0.1222     5.7234 </r>
       <r>    -7.8101     0.0452     5.7242 </r>
       <r>    -7.7923     0.0169     5.7245 </r>
       <r>    -7.7745     0.0230     5.7249 </r>
       <r>    -7.7567     0.0747     5.7262 </r>
       <r>    -7.7389     0.2139     5.7300 </r>
       <r>    -7.7211     0.4836     5.7386 </r>
       <r>    -7.7033     0.8645     5.7540 </r>
       <r>    -7.6855     1.2362     5.7760 </r>
       <r>    -7.6677     1.4436     5.8017 </r>
       <r>    -7.6499     1.4207     5.8270 </r>
[...]
        <r>  0.0025  0.0003  0.0000 </r>
       </set>
       <set comment="band 8">
        <r>  0.0000  0.0158  0.0000 </r>
        <r>  0.0000  0.0159  0.0000 </r>
       </set>
      </set>
      <set comment="kpoint 10">
       <set comment="band 1">
        <r>  0.3097  0.0154  0.0000 </r>
        <r>  0.3097  0.0154  0.0000 </r>
       </set>
       <set comment="band 2">
        <r>  0.0000  0.2184  0.0000 </r>
        <r>  0.0000  0.2184  0.0000 </r>
       </set>
       <set comment="band 3">
        <r>  0.0617  0.3313  0.0000 </r>
        <r>  0.0617  0.3313  0.0000 </r>
       </set>
       <set comment="band 4">
        <r>  0.0027  0.3924  0.0000 </r>
        <r>  0.0027  0.3924  0.0000 </r>
       </set>
       <set comment="band 5">
        <r>  0.0084  0.0018  0.0000 </r>
        <r>  0.0084  0.0018  0.0000 </r>
       </set>
       <set comment="band 6">
        <r>  0.0000  0.0145  0.0000 </r>
        <r>  0.0000  0.0145  0.0000 </r>
       </set>
       <set comment="band 7">
        <r>  0.0022  0.0007  0.0000 </r>
        <r>  0.0022  0.0007  0.0000 </r>
       </set>
       <set comment="band 8">
        <r>  0.0000  0.0163  0.0000 </r>
        <r>  0.0000  0.0163  0.0000 </r>
       </set>
      </set>
      <set comment="kpoint 11">
       <set comment="band 1">
        <r>  0.3001  0.0283  0.0000 </r>
        <r>  0.3001  0.0283  0.0000 </r>
       </set>
       <set comment="band 2">
        <r>  0.0934  0.2889  0.0000 </r>
        <r>  0.0934  0.2889  0.0000 </r>
       </set>
       <set comment="band 3">
        <r>  0.0000  0.2216  0.0000 </r>
        <r>  0.0000  0.2216  0.0000 </r>
       </set>
       <set comment="band 4">
        <r>  0.0052  0.3852  0.0000 </r>
        <r>  0.0052  0.3852  0.0000 </r>
       </set>
       <set comment="band 5">
        <r>  0.0075  0.0033  0.0000 </r>
        <r>  0.0075  0.0033  0.0000 </r>
       </set>
       <set comment="band 6">
        <r>  0.0000  0.0162  0.0000 </r>
        <r>  0.0000  0.0162  0.0000 </r>
       </set>
       <set comment="band 7">
        <r>  0.0018  0.0014  0.0000 </r>
        <r>  0.0018  0.0014  0.0000 </r>
       </set>
       <set comment="band 8">
        <r>  0.0000  0.3092  0.0000 </r>
        <r>  0.0000  0.3092  0.0000 </r>
       </set>
      </set>
      <set comment="kpoint 12">
       <set comment="band 1">
        <r>  0.2881  0.0448  0.0000 </r>
        <r>  0.2881  0.0448  0.0000 </r>
       </set>
       <set comment="band 2">
        <r>  0.1236  0.2479  0.0000 </r>
        <r>  0.1236  0.2479  0.0000 </r>
       </set>
       <set comment="band 3">
        <r>  0.0074  0.3805  0.0000 </r>
        <r>  0.0074  0.3805  0.0000 </r>
       </set>
       <set comment="band 4">
        <r>  0.0000  0.2265  0.0000 </r>
        <r>  0.0000  0.2265  0.0000 </r>
       </set>
       <set comment="band 5">
        <r>  0.0000  0.2821  0.0000 </r>
        <r>  0.0000  0.2821  0.0000 </r>
       </set>
       <set comment="band 6">
        <r>  0.0061  0.0060  0.0000 </r>
        <r>  0.0061  0.0060  0.0000 </r>
       </set>
       <set comment="band 7">
        <r>  0.0000  0.0216  0.0000 </r>
        <r>  0.0000  0.0216  0.0000 </r>
       </set>
       <set comment="band 8">
        <r>  0.0021  0.0056  0.0000 </r>
        <r>  0.0021  0.0056  0.0000 </r>
       </set>
      </set>
      <set comment="kpoint 13">
       <set comment="band 1">
        <r>  0.2750  0.0637  0.0000 </r>
        <r>  0.2750  0.0637  0.0000 </r>
       </set>
       <set comment="band 2">
        <r>  0.1499  0.2113  0.0000 </r>
        <r>  0.1499  0.2113  0.0000 </r>
       </set>
       <set comment="band 3">
        <r>  0.0088  0.3779  0.0000 </r>
        <r>  0.0088  0.3779  0.0000 </r>
       </set>
       <set comment="band 4">
        <r>  0.0000  0.2342  0.0000 </r>
        <r>  0.0000  0.2342  0.0000 </r>
       </set>
       <set comment="band 5">
        <r>  0.0000  0.2621  0.0000 </r>
        <r>  0.0000  0.2621  0.0000 </r>
       </set>
       <set comment="band 6">
        <r>  0.0096  0.0212  0.0000 </r>
        <r>  0.0096  0.0212  0.0000 </r>
       </set>
       <set comment="band 7">
        <r>  0.1516  0.0628  0.0000 </r>
        <r>  0.1516  0.0628  0.0000 </r>
       </set>
       <set comment="band 8">
        <r>  0.0000  0.0195  0.0000 </r>
        <r>  0.0000  0.0195  0.0000 </r>
       </set>
      </set>
      <set comment="kpoint 14">
       <set comment="band 1">
        <r>  0.2665  0.0804  0.0000 </r>
        <r>  0.2665  0.0804  0.0000 </r>
       </set>
       <set comment="band 2">
        <r>  0.1664  0.1840  0.0000 </r>
        <r>  0.1664  0.1840  0.0000 </r>
       </set>
       <set comment="band 3">
        <r>  0.0097  0.3765  0.0000 </r>
        <r>  0.0097  0.3765  0.0000 </r>
       </set>
       <set comment="band 4">
        <r>  0.0000  0.2457  0.0000 </r>
        <r>  0.0000  0.2457  0.0000 </r>
       </set>
       <set comment="band 5">
        <r>  0.0000  0.2407  0.0000 </r>
        <r>  0.0000  0.2407  0.0000 </r>
       </set>
       <set comment="band 6">
        <r>  0.1676  0.0643  0.0000 </r>
        <r>  0.1676  0.0643  0.0000 </r>
       </set>
       <set comment="band 7">
        <r>  0.0073  0.0074  0.0000 </r>
        <r>  0.0073  0.0074  0.0000 </r>
       </set>
       <set comment="band 8">
        <r>  0.0000  0.0229  0.0000 </r>
        <r>  0.0000  0.0229  0.0000 </r>
       </set>
      </set>
      <set comment="kpoint 15">
       <set comment="band 1">
        <r>  0.2968  0.0657  0.0000 </r>
        <r>  0.2968  0.0657  0.0000 </r>
       </set>
       <set comment="band 2">
        <r>  0.1387  0.1953  0.0000 </r>
        <r>  0.1387  0.1953  0.0000 </r>
       </set>
       <set comment="band 3">
        <r>  0.0099  0.3761  0.0000 </r>
        <r>  0.0099  0.3761  0.0000 </r>
       </set>
       <set comment="band 4">
        <r>  0.0000  0.2552  0.0000 </r>
        <r>  0.0000  0.2552  0.0000 </r>
       </set>
       <set comment="band 5">
        <r>  0.0000  0.2277  0.0000 </r>
        <r>  0.0000  0.2277  0.0000 </r>
       </set>
       <set comment="band 6">
        <r>  0.1739  0.0581  0.0000 </r>
        <r>  0.1739  0.0581  0.0000 </r>
       </set>
       <set comment="band 7">
        <r>  0.0040  0.0160  0.0000 </r>
        <r>  0.0040  0.0160  0.0000 </r>
       </set>
       <set comment="band 8">
        <r>  0.0017  0.0162  0.0000 </r>
        <r>  0.0017  0.0162  0.0000 </r>
       </set>
      </set>
      <set comment="kpoint 16">
       <set comment="band 1">
        <r>  0.3017  0.0262  0.0000 </r>
        <r>  0.3017  0.0262  0.0000 </r>
       </set>
       <set comment="band 2">
        <r>  0.0907  0.2993  0.0000 </r>
        <r>  0.0907  0.2993  0.0000 </r>
       </set>
       <set comment="band 3">
        <r>  0.0000  0.2210  0.0000 </r>
        <r>  0.0000  0.2210  0.0000 </r>
       </set>
       <set comment="band 4">
        <r>  0.0072  0.3751  0.0000 </r>
        <r>  0.0072  0.3751  0.0000 </r>
       </set>
       <set comment="band 5">
        <r>  0.0077  0.0028  0.0000 </r>
        <r>  0.0077  0.0028  0.0000 </r>
       </set>
       <set comment="band 6">
        <r>  0.0000  0.0149  0.0000 </r>
        <r>  0.0000  0.0149  0.0000 </r>
       </set>
       <set comment="band 7">
        <r>  0.0020  0.0011  0.0000 </r>
        <r>  0.0020  0.0011  0.0000 </r>
       </set>
       <set comment="band 8">
        <r>  0.0000  0.3226  0.0000 </r>
        <r>  0.0000  0.3226  0.0000 </r>
       </set>
      </set>
      <set comment="kpoint 17">
       <set comment="band 1">
        <r>  0.2910  0.0408  0.0000 </r>
        <r>  0.2910  0.0408  0.0000 </r>
       </set>
       <set comment="band 2">
        <r>  0.1188  0.2633  0.0000 </r>
        <r>  0.1188  0.2633  0.0000 </r>
       </set>
       <set comment="band 3">
        <r>  0.0145  0.3607  0.0000 </r>
        <r>  0.0145  0.3607  0.0000 </r>
       </set>
       <set comment="band 4">
        <r>  0.0000  0.2251  0.0000 </r>
        <r>  0.0000  0.2251  0.0000 </r>
       </set>
       <set comment="band 5">
        <r>  0.0068  0.0045  0.0000 </r>
        <r>  0.0068  0.0045  0.0000 </r>
       </set>
       <set comment="band 6">
        <r>  0.0000  0.2977  0.0000 </r>
        <r>  0.0000  0.2977  0.0000 </r>
       </set>
       <set comment="band 7">
        <r>  0.0000  0.0201  0.0000 </r>
        <r>  0.0000  0.0201  0.0000 </r>
       </set>
       <set comment="band 8">
        <r>  0.0015  0.0017  0.0000 </r>
        <r>  0.0015  0.0017  0.0000 </r>
       </set>
      </set>
      <set comment="kpoint 18">
       <set comment="band 1">
        <r>  0.2782  0.0587  0.0000 </r>
        <r>  0.2782  0.0587  0.0000 </r>
       </set>
       <set comment="band 2">
        <r>  0.1429  0.2279  0.0000 </r>
        <r>  0.1429  0.2279  0.0000 </r>
       </set>
       <set comment="band 3">
        <r>  0.0227  0.3507  0.0000 </r>
        <r>  0.0227  0.3507  0.0000 </r>
       </set>
       <set comment="band 4">
        <r>  0.0000  0.2313  0.0000 </r>
        <r>  0.0000  0.2313  0.0000 </r>
       </set>
       <set comment="band 5">
        <r>  0.0000  0.2803  0.0000 </r>
        <r>  0.0000  0.2803  0.0000 </r>
       </set>
       <set comment="band 6">
        <r>  0.0054  0.0074  0.0000 </r>
        <r>  0.0054  0.0074  0.0000 </r>
       </set>
       <set comment="band 7">
        <r>  0.0000  0.0184  0.0000 </r>
        <r>  0.0000  0.0184  0.0000 </r>
       </set>
       <set comment="band 8">
        <r>  0.0013  0.0050  0.0000 </r>
        <r>  0.0013  0.0050  0.0000 </r>
       </set>
      </set>
      <set comment="kpoint 19">
       <set comment="band 1">
        <r>  0.2660  0.0777  0.0000 </r>
        <r>  0.2660  0.0777  0.0000 </r>
       </set>
       <set comment="band 2">
        <r>  0.1630  0.1964  0.0000 </r>
        <r>  0.1630  0.1964  0.0000 </r>
       </set>
       <set comment="band 3">
        <r>  0.0281  0.3451  0.0000 </r>
        <r>  0.0281  0.3451  0.0000 </r>
       </set>
       <set comment="band 4">
        <r>  0.0000  0.2405  0.0000 </r>
        <r>  0.0000  0.2405  0.0000 </r>
       </set>
       <set comment="band 5">
        <r>  0.0000  0.2600  0.0000 </r>
        <r>  0.0000  0.2600  0.0000 </r>
       </set>
       <set comment="band 6">
        <r>  0.0060  0.0219  0.0000 </r>
        <r>  0.0060  0.0219  0.0000 </r>
       </set>
       <set comment="band 7">
        <r>  0.1345  0.0947  0.0000 </r>
        <r>  0.1345  0.0947  0.0000 </r>
       </set>
       <set comment="band 8">
        <r>  0.0000  0.0220  0.0000 </r>
        <r>  0.0000  0.0220  0.0000 </r>
       </set>
      </set>
      <set comment="kpoint 20">
       <set comment="band 1">
        <r>  0.2694  0.0858  0.0000 </r>
        <r>  0.2694  0.0858  0.0000 </r>
       </set>
       <set comment="band 2">
        <r>  0.1638  0.1819  0.0000 </r>
        <r>  0.1638  0.1819  0.0000 </r>
       </set>
       <set comment="band 3">
        <r>  0.0306  0.3425  0.0000 </r>
        <r>  0.0306  0.3425  0.0000 </r>
       </set>
       <set comment="band 4">
        <r>  0.0000  0.2528  0.0000 </r>
        <r>  0.0000  0.2528  0.0000 </r>
       </set>
       <set comment="band 5">
        <r>  0.0000  0.2417  0.0000 </r>
        <r>  0.0000  0.2417  0.0000 </r>
       </set>
       <set comment="band 6">
        <r>  0.1436  0.1005  0.0000 </r>
        <r>  0.1436  0.1005  0.0000 </r>
       </set>
       <set comment="band 7">
        <r>  0.0046  0.0133  0.0000 </r>
        <r>  0.0046  0.0133  0.0000 </r>
       </set>
       <set comment="band 8">
        <r>  0.0000  0.0333  0.0000 </r>
        <r>  0.0000  0.0333  0.0000 </r>
       </set>
      </set>
      <set comment="kpoint 21">
       <set comment="band 1">
        <r>  0.2794  0.0570  0.0000 </r>
        <r>  0.2794  0.0570  0.0000 </r>
       </set>
       <set comment="band 2">
        <r>  0.1504  0.2318  0.0000 </r>
        <r>  0.1504  0.2318  0.0000 </r>
       </set>
       <set comment="band 3">
        <r>  0.0188  0.3413  0.0000 </r>
        <r>  0.0188  0.3413  0.0000 </r>
       </set>
       <set comment="band 4">
        <r>  0.0000  0.2303  0.0000 </r>
        <r>  0.0000  0.2303  0.0000 </r>
       </set>
       <set comment="band 5">
        <r>  0.0000  0.2903  0.0000 </r>
        <r>  0.0000  0.2903  0.0000 </r>
       </set>
       <set comment="band 6">
        <r>  0.0059  0.0064  0.0000 </r>
        <r>  0.0059  0.0064  0.0000 </r>
       </set>
       <set comment="band 7">
        <r>  0.0000  0.0173  0.0000 </r>
        <r>  0.0000  0.0173  0.0000 </r>
       </set>
       <set comment="band 8">
        <r>  0.0012  0.0023  0.0000 </r>
        <r>  0.0012  0.0023  0.0000 </r>
       </set>
      </set>
      <set comment="kpoint 22">
       <set comment="band 1">
        <r>  0.2667  0.0756  0.0000 </r>
        <r>  0.2667  0.0756  0.0000 </r>
       </set>
       <set comment="band 2">
        <r>  0.1703  0.2031  0.0000 </r>
        <r>  0.1703  0.2031  0.0000 </r>
       </set>
       <set comment="band 3">
        <r>  0.0304  0.3254  0.0000 </r>
        <r>  0.0304  0.3254  0.0000 </r>
       </set>
       <set comment="band 4">
        <r>  0.0000  0.2378  0.0000 </r>
        <r>  0.0000  0.2378  0.0000 </r>
       </set>
       <set comment="band 5">
        <r>  0.0000  0.2768  0.0000 </r>
        <r>  0.0000  0.2768  0.0000 </r>
       </set>
       <set comment="band 6">
        <r>  0.0043  0.0100  0.0000 </r>
        <r>  0.0043  0.0100  0.0000 </r>
       </set>
       <set comment="band 7">
        <r>  0.0000  0.0207  0.0000 </r>
        <r>  0.0000  0.0207  0.0000 </r>
       </set>
       <set comment="band 8">
        <r>  0.0006  0.0044  0.0000 </r>
        <r>  0.0006  0.0044  0.0000 </r>
       </set>
      </set>
      <set comment="kpoint 23">
       <set comment="band 1">
        <r>  0.2577  0.0929  0.0000 </r>
        <r>  0.2577  0.0929  0.0000 </r>
       </set>
       <set comment="band 2">
        <r>  0.1788  0.1811  0.0000 </r>
        <r>  0.1788  0.1811  0.0000 </r>
       </set>
       <set comment="band 3">
        <r>  0.0422  0.3145  0.0000 </r>
        <r>  0.0422  0.3145  0.0000 </r>
       </set>
       <set comment="band 4">
        <r>  0.0000  0.2482  0.0000 </r>
        <r>  0.0000  0.2482  0.0000 </r>
       </set>
       <set comment="band 5">
        <r>  0.0000  0.2617  0.0000 </r>
        <r>  0.0000  0.2617  0.0000 </r>
       </set>
       <set comment="band 6">
        <r>  0.0024  0.0216  0.0000 </r>
        <r>  0.0024  0.0216  0.0000 </r>
       </set>
       <set comment="band 7">
        <r>  0.0000  0.0279  0.0000 </r>
        <r>  0.0000  0.0279  0.0000 </r>
       </set>
       <set comment="band 8">
        <r>  0.1074  0.1402  0.0000 </r>
        <r>  0.1074  0.1402  0.0000 </r>
       </set>
      </set>
      <set comment="kpoint 24">
       <set comment="band 1">
        <r>  0.2804  0.0847  0.0000 </r>
        <r>  0.2804  0.0847  0.0000 </r>
       </set>
       <set comment="band 2">
        <r>  0.1560  0.1877  0.0000 </r>
        <r>  0.1560  0.1877  0.0000 </r>
       </set>
       <set comment="band 3">
        <r>  0.0461  0.3111  0.0000 </r>
        <r>  0.0461  0.3111  0.0000 </r>
       </set>
       <set comment="band 4">
        <r>  0.0000  0.2571  0.0000 </r>
        <r>  0.0000  0.2571  0.0000 </r>
       </set>
       <set comment="band 5">
        <r>  0.0000  0.2509  0.0000 </r>
        <r>  0.0000  0.2509  0.0000 </r>
       </set>
       <set comment="band 6">
        <r>  0.1094  0.1469  0.0000 </r>
        <r>  0.1094  0.1469  0.0000 </r>
       </set>
       <set comment="band 7">
        <r>  0.0000  0.0303  0.0000 </r>
        <r>  0.0000  0.0303  0.0000 </r>
       </set>
       <set comment="band 8">
        <r>  0.0007  0.0358  0.0000 </r>
        <r>  0.0007  0.0358  0.0000 </r>
       </set>
      </set>
      <set comment="kpoint 25">
       <set comment="band 1">
        <r>  0.2555  0.0940  0.0000 </r>
        <r>  0.2555  0.0940  0.0000 </r>
       </set>
       <set comment="band 2">
        <r>  0.2045  0.1712  0.0000 </r>
        <r>  0.2045  0.1712  0.0000 </r>
       </set>
       <set comment="band 3">
        <r>  0.0242  0.3155  0.0000 </r>
        <r>  0.0242  0.3155  0.0000 </r>
       </set>
       <set comment="band 4">
        <r>  0.0000  0.2462  0.0000 </r>
        <r>  0.0000  0.2462  0.0000 </r>
       </set>
       <set comment="band 5">
        <r>  0.0000  0.2717  0.0000 </r>
        <r>  0.0000  0.2717  0.0000 </r>
       </set>
       <set comment="band 6">
        <r>  0.0025  0.0163  0.0000 </r>
        <r>  0.0025  0.0163  0.0000 </r>
       </set>
       <set comment="band 7">
        <r>  0.0000  0.0236  0.0000 </r>
        <r>  0.0000  0.0236  0.0000 </r>
       </set>
       <set comment="band 8">
        <r>  0.0001  0.0070  0.0000 </r>
        <r>  0.0001  0.0070  0.0000 </r>
       </set>
      </set>
      <set comment="kpoint 26">
       <set comment="band 1">
        <r>  0.2540  0.1064  0.0000 </r>
        <r>  0.2540  0.1064  0.0000 </r>
       </set>
       <set comment="band 2">
        <r>  0.2079  0.1568  0.0000 </r>
        <r>  0.2079  0.1568  0.0000 </r>
       </set>
       <set comment="band 3">
        <r>  0.0309  0.3057  0.0000 </r>
        <r>  0.0309  0.3057  0.0000 </r>
       </set>
       <set comment="band 4">
        <r>  0.0000  0.2561  0.0000 </r>
        <r>  0.0000  0.2561  0.0000 </r>
       </set>
       <set comment="band 5">
        <r>  0.0000  0.2635  0.0000 </r>
        <r>  0.0000  0.2635  0.0000 </r>
       </set>
       <set comment="band 6">
        <r>  0.0000  0.0109  0.0000 </r>
        <r>  0.0000  0.0109  0.0000 </r>
       </set>
       <set comment="band 7">
        <r>  0.0005  0.0394  0.0000 </r>
        <r>  0.0005  0.0394  0.0000 </r>
       </set>
       <set comment="band 8">
        <r>  0.0672  0.1754  0.0000 </r>
        <r>  0.0672  0.1754  0.0000 </r>
       </set>
      </set>
      <set comment="kpoint 27">
       <set comment="band 1">
        <r>  0.2182  0.1358  0.0000 </r>
        <r>  0.2794  0.1061  0.0000 </r>
       </set>
       <set comment="band 2">
        <r>  0.2794  0.1061  0.0000 </r>
        <r>  0.2182  0.1358  0.0000 </r>
       </set>
       <set comment="band 3">
        <r>  0.0000  0.3203  0.0000 </r>
        <r>  0.0000  0.3203  0.0000 </r>
       </set>
       <set comment="band 4">
        <r>  0.0000  0.1678  0.0000 </r>
        <r>  0.0000  0.3560  0.0000 </r>
       </set>
       <set comment="band 5">
        <r>  0.0000  0.3560  0.0000 </r>
        <r>  0.0000  0.1678  0.0000 </r>
       </set>
       <set comment="band 6">
        <r>  0.0000  0.0000  0.0000 </r>
        <r>  0.0000  0.0000  0.0000 </r>
       </set>
       <set comment="band 7">
        <r>  0.0108  0.1342  0.0000 </r>
        <r>  0.0128  0.1129  0.0000 </r>
       </set>
       <set comment="band 8">
        <r>  0.0128  0.1129  0.0000 </r>
        <r>  0.0108  0.1342  0.0000 </r>
       </set>
      </set>
     </set>
    </set>
   </array>
  </projected>
 </calculation>
 <structure name="finalpos" >
  <crystal>
   <varray name="basis" >
    <v>       2.46826903       0.00000000       0.00000000 </v>
    <v>      -1.23413451       2.13758368       0.00000000 </v>
    <v>       0.00000000       0.00000000      14.98738952 </v>
   </varray>
   <i name="volume">     79.07543933 </i>
   <varray name="rec_basis" >
    <v>       0.40514222       0.23390897       0.00000000 </v>
    <v>      -0.00000000       0.46781794       0.00000000 </v>
    <v>       0.00000000       0.00000000       0.06672276 </v>
   </varray>
  </crystal>
  <varray name="positions" >
   <v>       0.00000000       0.00000000       0.50000000 </v>
   <v>       0.66666667       0.33333333       0.50000000 </v>
  </varray>
 </structure>
</modeling>
